
     Program PWSCF v.6.6 starts on 15Jun2021 at  0:40:40 

     This program is part of the open-source Quantum ESPRESSO suite
     for quantum simulation of materials; please cite
         "P. Giannozzi et al., J. Phys.:Condens. Matter 21 395502 (2009);
         "P. Giannozzi et al., J. Phys.:Condens. Matter 29 465901 (2017);
          URL http://www.quantum-espresso.org", 
     in publications or presentations arising from this work. More details at
     http://www.quantum-espresso.org/quote

     Parallel version (MPI), running on     2 processors

     MPI processes distributed on     1 nodes
     R & G space division:  proc/nbgrp/npool/nimage =       2
     Fft bands division:     nmany     =       1
     Waiting for input...
     Reading input from standard input

     Current dimensions of program PWSCF are:
     Max number of different atomic species (ntypx) = 10
     Max number of k-points (npk) =  40000
     Max angular momentum in pseudopotentials (lmaxx) =  3
     file Nb.pz-spn-kjpaw_psl.1.0.0.UPF: wavefunction(s)  4S 4P 4D renormalized
     file S.pz-n-kjpaw_psl.0.1.UPF: wavefunction(s)  3P renormalized

     Subspace diagonalization in iterative solution of the eigenvalue problem:
     a serial algorithm will be used


     Parallelization info
     --------------------
     sticks:   dense  smooth     PW     G-vecs:    dense   smooth      PW
     Min         534     216     60                85552    21653    3588
     Max         535     217     61                85569    21664    3613
     Sum        1069     433    121               171121    43317    7201



     bravais-lattice index     =            4
     lattice parameter (alat)  =       6.2187  a.u.
     unit-cell volume          =    1265.7886 (a.u.)^3
     number of atoms/cell      =            6
     number of atomic types    =            2
     number of electrons       =        50.00
     number of Kohn-Sham states=           60
     kinetic-energy cutoff     =      40.0000  Ry
     charge density cutoff     =     400.0000  Ry
     convergence threshold     =      1.0E-08
     mixing beta               =       0.7000
     number of iterations used =            8  plain     mixing
     Exchange-correlation= SLA PZ NOGX NOGC
                           (   1   1   0   0   0   0   0)
     nstep                     =           50


     celldm(1)=   6.218718  celldm(2)=   0.000000  celldm(3)=   6.077543
     celldm(4)=   0.000000  celldm(5)=   0.000000  celldm(6)=   0.000000

     crystal axes: (cart. coord. in units of alat)
               a(1) = (   1.000000   0.000000   0.000000 )  
               a(2) = (  -0.500000   0.866025   0.000000 )  
               a(3) = (   0.000000   0.000000   6.077543 )  

     reciprocal axes: (cart. coord. in units 2 pi/alat)
               b(1) = (  1.000000  0.577350 -0.000000 )  
               b(2) = (  0.000000  1.154701  0.000000 )  
               b(3) = (  0.000000 -0.000000  0.164540 )  


     PseudoPot. # 1 for Nb read from file:
     ../Nb.pz-spn-kjpaw_psl.1.0.0.UPF
     MD5 check sum: 38c2e04b3cc915696ca8dc9f46a23270
     Pseudo is Projector augmented-wave + core cor, Zval = 13.0
     Generated using "atomic" code by A. Dal Corso v.6.2.2
     Shape of augmentation charge: PSQ
     Using radial grid of 1227 points,  6 beta functions with: 
                l(1) =   0
                l(2) =   0
                l(3) =   1
                l(4) =   1
                l(5) =   2
                l(6) =   2
     Q(r) pseudized with 0 coefficients 


     PseudoPot. # 2 for S  read from file:
     ../S.pz-n-kjpaw_psl.0.1.UPF
     MD5 check sum: c0b1682311cf098e03f7841691d9a679
     Pseudo is Projector augmented-wave + core cor, Zval =  6.0
     Generated using "atomic" code by A. Dal Corso v.5.0.2 svn rev. 9415
     Shape of augmentation charge: PSQ
     Using radial grid of 1151 points,  4 beta functions with: 
                l(1) =   0
                l(2) =   0
                l(3) =   1
                l(4) =   1
     Q(r) pseudized with 0 coefficients 


     atomic species   valence    mass     pseudopotential
        Nb            13.00    92.90600     Nb( 1.00)
        S              6.00    32.06500     S ( 1.00)

     No symmetry found


                                    s                        frac. trans.

      isym =  1     identity                                     

 cryst.   s( 1) = (     1          0          0      )
                  (     0          1          0      )
                  (     0          0          1      )

 cart.    s( 1) = (  1.0000000  0.0000000  0.0000000 )
                  (  0.0000000  1.0000000  0.0000000 )
                  (  0.0000000  0.0000000  1.0000000 )


     point group C_1 (1)    
     there are  1 classes
     the character table:

       E    
A      1.00

     the symmetry operations in each class and the name of the first element:

     E        1
          identity                                               

   Cartesian axes

     site n.     atom                  positions (alat units)
         1           S   tau(   1) = (  -0.0000000   0.5756654   1.3609422  )
         2           Nb  tau(   2) = (   0.0000000   0.0000000   0.8922428  )
         3           S   tau(   3) = (  -0.0009728   0.5773503   0.4235480  )
         4           S   tau(   4) = (   0.4985408   0.2878327   2.1408321  )
         5           Nb  tau(   5) = (   0.0000000   0.0000000   2.6095260  )
         6           S   tau(   6) = (   0.4985408   0.2878327   3.0782101  )

   Crystallographic axes

     site n.     atom                  positions (cryst. coord.)
         1           S   tau(   1) = (  0.3323606  0.6647211  0.2239297  )
         2           Nb  tau(   2) = (  0.0000000  0.0000000  0.1468098  )
         3           S   tau(   3) = (  0.3323606  0.6666667  0.0696907  )
         4           S   tau(   4) = (  0.6647211  0.3323606  0.3522529  )
         5           Nb  tau(   5) = (  0.0000000  0.0000000  0.4293719  )
         6           S   tau(   6) = (  0.6647211  0.3323606  0.5064893  )

     number of k points=    74  Methfessel-Paxton smearing, width (Ry)=  0.0200
                       cart. coord. in units 2pi/alat
        k(    1) = (   0.0000000   0.0000000   0.0000000), wk =   0.0138889
        k(    2) = (   0.0000000   0.0962250   0.0000000), wk =   0.0277778
        k(    3) = (   0.0000000   0.1924501   0.0000000), wk =   0.0277778
        k(    4) = (   0.0000000   0.2886751   0.0000000), wk =   0.0277778
        k(    5) = (   0.0000000   0.3849002   0.0000000), wk =   0.0277778
        k(    6) = (   0.0000000   0.4811252   0.0000000), wk =   0.0277778
        k(    7) = (   0.0000000  -0.5773503   0.0000000), wk =   0.0138889
        k(    8) = (   0.0833333   0.1443376   0.0000000), wk =   0.0277778
        k(    9) = (   0.0833333   0.2405626   0.0000000), wk =   0.0277778
        k(   10) = (   0.0833333   0.3367877   0.0000000), wk =   0.0277778
        k(   11) = (   0.0833333   0.4330127   0.0000000), wk =   0.0277778
        k(   12) = (   0.0833333   0.5292377   0.0000000), wk =   0.0277778
        k(   13) = (   0.1666667   0.2886751   0.0000000), wk =   0.0277778
        k(   14) = (   0.1666667   0.3849002   0.0000000), wk =   0.0277778
        k(   15) = (   0.1666667   0.4811252   0.0000000), wk =   0.0277778
        k(   16) = (   0.1666667   0.5773503   0.0000000), wk =   0.0277778
        k(   17) = (   0.2500000   0.4330127   0.0000000), wk =   0.0277778
        k(   18) = (   0.2500000   0.5292377   0.0000000), wk =   0.0277778
        k(   19) = (   0.3333333   0.5773503   0.0000000), wk =   0.0277778
        k(   20) = (  -0.0833333   0.0481125   0.0000000), wk =   0.0277778
        k(   21) = (   0.0833333   0.0481125   0.0000000), wk =   0.0277778
        k(   22) = (  -0.1666667   0.0962250   0.0000000), wk =   0.0277778
        k(   23) = (   0.1666667   0.0962250   0.0000000), wk =   0.0277778
        k(   24) = (  -0.2500000   0.1443376   0.0000000), wk =   0.0277778
        k(   25) = (   0.2500000   0.1443376   0.0000000), wk =   0.0277778
        k(   26) = (  -0.3333333   0.1924501   0.0000000), wk =   0.0277778
        k(   27) = (   0.3333333   0.1924501   0.0000000), wk =   0.0277778
        k(   28) = (  -0.4166667   0.2405626   0.0000000), wk =   0.0277778
        k(   29) = (   0.4166667   0.2405626   0.0000000), wk =   0.0277778
        k(   30) = (   0.5000000  -0.2886751   0.0000000), wk =   0.0138889
        k(   31) = (  -0.5000000  -0.2886751   0.0000000), wk =   0.0138889
        k(   32) = (  -0.0833333   0.1443376   0.0000000), wk =   0.0277778
        k(   33) = (   0.1666667   0.0000000   0.0000000), wk =   0.0277778
        k(   34) = (  -0.0833333   0.2405626   0.0000000), wk =   0.0277778
        k(   35) = (  -0.1666667   0.1924501   0.0000000), wk =   0.0277778
        k(   36) = (   0.2500000   0.0481125   0.0000000), wk =   0.0277778
        k(   37) = (  -0.1666667  -0.1924501   0.0000000), wk =   0.0277778
        k(   38) = (   0.2500000  -0.0481125   0.0000000), wk =   0.0277778
        k(   39) = (  -0.0833333   0.3367877   0.0000000), wk =   0.0277778
        k(   40) = (  -0.2500000   0.2405626   0.0000000), wk =   0.0277778
        k(   41) = (   0.3333333   0.0962250   0.0000000), wk =   0.0277778
        k(   42) = (  -0.2500000  -0.2405626   0.0000000), wk =   0.0277778
        k(   43) = (   0.3333333  -0.0962250   0.0000000), wk =   0.0277778
        k(   44) = (  -0.0833333   0.4330127   0.0000000), wk =   0.0277778
        k(   45) = (  -0.3333333   0.2886751   0.0000000), wk =   0.0277778
        k(   46) = (   0.4166667   0.1443376   0.0000000), wk =   0.0277778
        k(   47) = (  -0.3333333  -0.2886751   0.0000000), wk =   0.0277778
        k(   48) = (   0.4166667  -0.1443376   0.0000000), wk =   0.0277778
        k(   49) = (  -0.0833333   0.5292377   0.0000000), wk =   0.0277778
        k(   50) = (  -0.4166667   0.3367877   0.0000000), wk =   0.0277778
        k(   51) = (   0.5000000   0.1924501   0.0000000), wk =   0.0277778
        k(   52) = (  -0.4166667  -0.3367877   0.0000000), wk =   0.0277778
        k(   53) = (   0.5000000  -0.1924501   0.0000000), wk =   0.0277778
        k(   54) = (  -0.1666667   0.2886751   0.0000000), wk =   0.0277778
        k(   55) = (   0.3333333   0.0000000   0.0000000), wk =   0.0277778
        k(   56) = (  -0.1666667   0.3849002   0.0000000), wk =   0.0277778
        k(   57) = (  -0.2500000   0.3367877   0.0000000), wk =   0.0277778
        k(   58) = (   0.4166667   0.0481125   0.0000000), wk =   0.0277778
        k(   59) = (  -0.2500000  -0.3367877   0.0000000), wk =   0.0277778
        k(   60) = (   0.4166667  -0.0481125   0.0000000), wk =   0.0277778
        k(   61) = (  -0.1666667   0.4811252   0.0000000), wk =   0.0277778
        k(   62) = (  -0.3333333   0.3849002   0.0000000), wk =   0.0277778
        k(   63) = (   0.5000000   0.0962250   0.0000000), wk =   0.0277778
        k(   64) = (  -0.3333333  -0.3849002   0.0000000), wk =   0.0277778
        k(   65) = (   0.5000000  -0.0962250   0.0000000), wk =   0.0277778
        k(   66) = (  -0.4166667   0.4330127   0.0000000), wk =   0.0277778
        k(   67) = (   0.5833333   0.1443376   0.0000000), wk =   0.0277778
        k(   68) = (  -0.2500000   0.4330127   0.0000000), wk =   0.0277778
        k(   69) = (   0.5000000   0.0000000   0.0000000), wk =   0.0277778
        k(   70) = (  -0.2500000   0.5292377   0.0000000), wk =   0.0277778
        k(   71) = (  -0.3333333   0.4811252   0.0000000), wk =   0.0277778
        k(   72) = (   0.5833333   0.0481125   0.0000000), wk =   0.0277778
        k(   73) = (  -0.3333333  -0.4811252   0.0000000), wk =   0.0277778
        k(   74) = (   0.5833333  -0.0481125   0.0000000), wk =   0.0277778

                       cryst. coord.
        k(    1) = (   0.0000000   0.0000000   0.0000000), wk =   0.0138889
        k(    2) = (   0.0000000   0.0833333   0.0000000), wk =   0.0277778
        k(    3) = (   0.0000000   0.1666667   0.0000000), wk =   0.0277778
        k(    4) = (   0.0000000   0.2500000   0.0000000), wk =   0.0277778
        k(    5) = (   0.0000000   0.3333333   0.0000000), wk =   0.0277778
        k(    6) = (   0.0000000   0.4166667   0.0000000), wk =   0.0277778
        k(    7) = (   0.0000000  -0.5000000   0.0000000), wk =   0.0138889
        k(    8) = (   0.0833333   0.0833333   0.0000000), wk =   0.0277778
        k(    9) = (   0.0833333   0.1666667   0.0000000), wk =   0.0277778
        k(   10) = (   0.0833333   0.2500000   0.0000000), wk =   0.0277778
        k(   11) = (   0.0833333   0.3333333   0.0000000), wk =   0.0277778
        k(   12) = (   0.0833333   0.4166667   0.0000000), wk =   0.0277778
        k(   13) = (   0.1666667   0.1666667   0.0000000), wk =   0.0277778
        k(   14) = (   0.1666667   0.2500000   0.0000000), wk =   0.0277778
        k(   15) = (   0.1666667   0.3333333   0.0000000), wk =   0.0277778
        k(   16) = (   0.1666667   0.4166667   0.0000000), wk =   0.0277778
        k(   17) = (   0.2500000   0.2500000   0.0000000), wk =   0.0277778
        k(   18) = (   0.2500000   0.3333333   0.0000000), wk =   0.0277778
        k(   19) = (   0.3333333   0.3333333   0.0000000), wk =   0.0277778
        k(   20) = (  -0.0833333   0.0833333   0.0000000), wk =   0.0277778
        k(   21) = (   0.0833333   0.0000000   0.0000000), wk =   0.0277778
        k(   22) = (  -0.1666667   0.1666667   0.0000000), wk =   0.0277778
        k(   23) = (   0.1666667   0.0000000   0.0000000), wk =   0.0277778
        k(   24) = (  -0.2500000   0.2500000   0.0000000), wk =   0.0277778
        k(   25) = (   0.2500000   0.0000000   0.0000000), wk =   0.0277778
        k(   26) = (  -0.3333333   0.3333333   0.0000000), wk =   0.0277778
        k(   27) = (   0.3333333   0.0000000   0.0000000), wk =   0.0277778
        k(   28) = (  -0.4166667   0.4166667   0.0000000), wk =   0.0277778
        k(   29) = (   0.4166667   0.0000000   0.0000000), wk =   0.0277778
        k(   30) = (   0.5000000  -0.5000000   0.0000000), wk =   0.0138889
        k(   31) = (  -0.5000000   0.0000000   0.0000000), wk =   0.0138889
        k(   32) = (  -0.0833333   0.1666667   0.0000000), wk =   0.0277778
        k(   33) = (   0.1666667  -0.0833333   0.0000000), wk =   0.0277778
        k(   34) = (  -0.0833333   0.2500000   0.0000000), wk =   0.0277778
        k(   35) = (  -0.1666667   0.2500000   0.0000000), wk =   0.0277778
        k(   36) = (   0.2500000  -0.0833333   0.0000000), wk =   0.0277778
        k(   37) = (  -0.1666667  -0.0833333   0.0000000), wk =   0.0277778
        k(   38) = (   0.2500000  -0.1666667   0.0000000), wk =   0.0277778
        k(   39) = (  -0.0833333   0.3333333   0.0000000), wk =   0.0277778
        k(   40) = (  -0.2500000   0.3333333   0.0000000), wk =   0.0277778
        k(   41) = (   0.3333333  -0.0833333   0.0000000), wk =   0.0277778
        k(   42) = (  -0.2500000  -0.0833333   0.0000000), wk =   0.0277778
        k(   43) = (   0.3333333  -0.2500000   0.0000000), wk =   0.0277778
        k(   44) = (  -0.0833333   0.4166667   0.0000000), wk =   0.0277778
        k(   45) = (  -0.3333333   0.4166667   0.0000000), wk =   0.0277778
        k(   46) = (   0.4166667  -0.0833333   0.0000000), wk =   0.0277778
        k(   47) = (  -0.3333333  -0.0833333   0.0000000), wk =   0.0277778
        k(   48) = (   0.4166667  -0.3333333   0.0000000), wk =   0.0277778
        k(   49) = (  -0.0833333   0.5000000   0.0000000), wk =   0.0277778
        k(   50) = (  -0.4166667   0.5000000   0.0000000), wk =   0.0277778
        k(   51) = (   0.5000000  -0.0833333   0.0000000), wk =   0.0277778
        k(   52) = (  -0.4166667  -0.0833333   0.0000000), wk =   0.0277778
        k(   53) = (   0.5000000  -0.4166667   0.0000000), wk =   0.0277778
        k(   54) = (  -0.1666667   0.3333333   0.0000000), wk =   0.0277778
        k(   55) = (   0.3333333  -0.1666667   0.0000000), wk =   0.0277778
        k(   56) = (  -0.1666667   0.4166667   0.0000000), wk =   0.0277778
        k(   57) = (  -0.2500000   0.4166667   0.0000000), wk =   0.0277778
        k(   58) = (   0.4166667  -0.1666667   0.0000000), wk =   0.0277778
        k(   59) = (  -0.2500000  -0.1666667   0.0000000), wk =   0.0277778
        k(   60) = (   0.4166667  -0.2500000   0.0000000), wk =   0.0277778
        k(   61) = (  -0.1666667   0.5000000   0.0000000), wk =   0.0277778
        k(   62) = (  -0.3333333   0.5000000   0.0000000), wk =   0.0277778
        k(   63) = (   0.5000000  -0.1666667   0.0000000), wk =   0.0277778
        k(   64) = (  -0.3333333  -0.1666667   0.0000000), wk =   0.0277778
        k(   65) = (   0.5000000  -0.3333333   0.0000000), wk =   0.0277778
        k(   66) = (  -0.4166667   0.5833333   0.0000000), wk =   0.0277778
        k(   67) = (   0.5833333  -0.1666667   0.0000000), wk =   0.0277778
        k(   68) = (  -0.2500000   0.5000000   0.0000000), wk =   0.0277778
        k(   69) = (   0.5000000  -0.2500000   0.0000000), wk =   0.0277778
        k(   70) = (  -0.2500000   0.5833333   0.0000000), wk =   0.0277778
        k(   71) = (  -0.3333333   0.5833333   0.0000000), wk =   0.0277778
        k(   72) = (   0.5833333  -0.2500000   0.0000000), wk =   0.0277778
        k(   73) = (  -0.3333333  -0.2500000   0.0000000), wk =   0.0277778
        k(   74) = (   0.5833333  -0.3333333   0.0000000), wk =   0.0277778

     Dense  grid:   171121 G-vectors     FFT dimensions: (  40,  40, 243)

     Smooth grid:    43317 G-vectors     FFT dimensions: (  25,  25, 160)

     Dynamical RAM for                 wfc:       2.48 MB

     Dynamical RAM for     wfc (w. buffer):     185.67 MB

     Dynamical RAM for           str. fact:       2.61 MB

     Dynamical RAM for           local pot:       0.00 MB

     Dynamical RAM for          nlocal pot:       2.81 MB

     Dynamical RAM for                qrad:       3.21 MB

     Dynamical RAM for          rho,v,vnew:       8.38 MB

     Dynamical RAM for               rhoin:       2.79 MB

     Dynamical RAM for            rho*nmix:      20.89 MB

     Dynamical RAM for           G-vectors:       5.06 MB

     Dynamical RAM for          h,s,v(r/c):       0.66 MB

     Dynamical RAM for          <psi|beta>:       0.06 MB

     Dynamical RAM for                 psi:       4.95 MB

     Dynamical RAM for                hpsi:       4.95 MB

     Dynamical RAM for                spsi:       4.95 MB

     Dynamical RAM for      wfcinit/wfcrot:       5.03 MB

     Dynamical RAM for           addusdens:     248.03 MB

     Dynamical RAM for          addusforce:     256.53 MB

     Estimated static dynamical RAM per process >     242.78 MB

     Estimated max dynamical RAM per process >     499.32 MB

     Estimated total dynamical RAM >     998.63 MB

     Initial potential from superposition of free atoms

     starting charge   49.99775, renormalised to   50.00000

     negative rho (up, down):  1.224E-04 0.000E+00
     Starting wfcs are   42 randomized atomic wfcs +   18 random wfcs
     Checking if some PAW data can be deallocated... 

     total cpu time spent up to now is       22.1 secs

     Self-consistent Calculation

     iteration #  1     ecut=    40.00 Ry     beta= 0.70
     Davidson diagonalization with overlap
     ethr =  1.00E-02,  avg # of iterations =  7.6

     Threshold (ethr) on eigenvalues was too large:
     Diagonalizing with lowered threshold

     Davidson diagonalization with overlap
     ethr =  5.16E-04,  avg # of iterations =  2.4

     negative rho (up, down):  1.790E-04 0.000E+00

     total cpu time spent up to now is      211.5 secs

     total energy              =    -907.82479889 Ry
     estimated scf accuracy    <       0.25909004 Ry

     iteration #  2     ecut=    40.00 Ry     beta= 0.70
     Davidson diagonalization with overlap
     ethr =  5.18E-04,  avg # of iterations =  5.5

     negative rho (up, down):  1.893E-04 0.000E+00

     total cpu time spent up to now is      291.8 secs

     total energy              =    -907.78693314 Ry
     estimated scf accuracy    <       0.37888983 Ry

     iteration #  3     ecut=    40.00 Ry     beta= 0.70
     Davidson diagonalization with overlap
     ethr =  5.18E-04,  avg # of iterations =  7.4

     negative rho (up, down):  1.914E-04 0.000E+00

     total cpu time spent up to now is      370.3 secs

     total energy              =    -907.28142555 Ry
     estimated scf accuracy    <      18.08892330 Ry

     iteration #  4     ecut=    40.00 Ry     beta= 0.70
     Davidson diagonalization with overlap
     ethr =  5.18E-04,  avg # of iterations =  6.6

     negative rho (up, down):  1.898E-04 0.000E+00

     total cpu time spent up to now is      444.4 secs

     total energy              =    -907.85219611 Ry
     estimated scf accuracy    <       1.31353989 Ry

     iteration #  5     ecut=    40.00 Ry     beta= 0.70
     Davidson diagonalization with overlap
     ethr =  5.18E-04,  avg # of iterations =  2.6

     negative rho (up, down):  1.869E-04 0.000E+00

     total cpu time spent up to now is      508.8 secs

     total energy              =    -907.91533251 Ry
     estimated scf accuracy    <       0.07599955 Ry

     iteration #  6     ecut=    40.00 Ry     beta= 0.70
     Davidson diagonalization with overlap
     ethr =  1.52E-04,  avg # of iterations =  2.4

     negative rho (up, down):  1.873E-04 0.000E+00

     total cpu time spent up to now is      569.4 secs

     total energy              =    -907.91710082 Ry
     estimated scf accuracy    <       0.02372854 Ry

     iteration #  7     ecut=    40.00 Ry     beta= 0.70
     Davidson diagonalization with overlap
     ethr =  4.75E-05,  avg # of iterations =  3.6

     negative rho (up, down):  1.875E-04 0.000E+00

     total cpu time spent up to now is      635.9 secs

     total energy              =    -907.91925634 Ry
     estimated scf accuracy    <       0.01665885 Ry

     iteration #  8     ecut=    40.00 Ry     beta= 0.70
     Davidson diagonalization with overlap
     ethr =  3.33E-05,  avg # of iterations =  1.4

     negative rho (up, down):  1.876E-04 0.000E+00

     total cpu time spent up to now is      691.4 secs

     total energy              =    -907.91952326 Ry
     estimated scf accuracy    <       0.00146523 Ry

     iteration #  9     ecut=    40.00 Ry     beta= 0.70
     Davidson diagonalization with overlap
     ethr =  2.93E-06,  avg # of iterations =  9.9

     negative rho (up, down):  1.879E-04 0.000E+00

     total cpu time spent up to now is      762.4 secs

     total energy              =    -907.91958931 Ry
     estimated scf accuracy    <       0.00032753 Ry

     iteration # 10     ecut=    40.00 Ry     beta= 0.70
     Davidson diagonalization with overlap
     ethr =  6.55E-07,  avg # of iterations =  1.0

     negative rho (up, down):  1.881E-04 0.000E+00

     total cpu time spent up to now is      814.7 secs

     total energy              =    -907.91959091 Ry
     estimated scf accuracy    <       0.00015316 Ry

     iteration # 11     ecut=    40.00 Ry     beta= 0.70
     Davidson diagonalization with overlap
     ethr =  3.06E-07,  avg # of iterations =  1.0

     negative rho (up, down):  1.882E-04 0.000E+00

     total cpu time spent up to now is      866.3 secs

     total energy              =    -907.91959347 Ry
     estimated scf accuracy    <       0.00000053 Ry

     iteration # 12     ecut=    40.00 Ry     beta= 0.70
     Davidson diagonalization with overlap
     ethr =  1.07E-09,  avg # of iterations =  1.0

     negative rho (up, down):  1.882E-04 0.000E+00

     total cpu time spent up to now is      922.7 secs

     total energy              =    -907.91959349 Ry
     estimated scf accuracy    <       0.00000008 Ry

     iteration # 13     ecut=    40.00 Ry     beta= 0.70
     Davidson diagonalization with overlap
     ethr =  1.59E-10,  avg # of iterations =  1.0

     negative rho (up, down):  1.882E-04 0.000E+00

     total cpu time spent up to now is      976.1 secs

     End of self-consistent calculation

          k = 0.0000 0.0000 0.0000 (  5453 PWs)   bands (ev):

   -51.4992 -51.4992 -27.7275 -27.7270 -27.5032 -27.5022 -27.4998 -27.4989
   -10.7674 -10.3641  -9.3402  -8.8732  -2.6464  -1.6737   0.7062   0.7099
     0.7566   0.7597   1.1132   1.8294   1.8405   1.8769   1.8890   2.5883
     3.8754   4.7300   6.0201   6.0366   6.3185   6.3322   6.4618   6.4673
     6.5272   6.5338   8.4961   8.5907   8.9790   9.4314  10.9778  11.2006
    11.7223  13.1835  13.5593  13.5617  13.6195  13.6279  14.4511  15.3667
    15.4097  15.4226  16.2388  16.2916  16.2999  16.7116  17.9823  18.0000
    18.1425  18.2057  18.9356  19.0296

     occupation numbers 
     1.0000   1.0000   1.0000   1.0000   1.0000   1.0000   1.0000   1.0000
     1.0000   1.0000   1.0000   1.0000   1.0000   1.0000   1.0000   1.0000
     1.0000   1.0000   1.0000   1.0000   1.0000   1.0000   1.0000   1.0071
    -0.0005  -0.0000  -0.0000  -0.0000  -0.0000  -0.0000  -0.0000  -0.0000
    -0.0000  -0.0000  -0.0000  -0.0000  -0.0000  -0.0000  -0.0000  -0.0000
    -0.0000  -0.0000  -0.0000  -0.0000  -0.0000  -0.0000  -0.0000  -0.0000
    -0.0000  -0.0000  -0.0000  -0.0000  -0.0000  -0.0000  -0.0000  -0.0000
    -0.0000  -0.0000  -0.0000  -0.0000

          k = 0.0000 0.0962 0.0000 (  5423 PWs)   bands (ev):

   -51.4962 -51.4962 -27.7209 -27.7205 -27.5331 -27.5311 -27.5087 -27.5067
   -10.6732 -10.2703  -9.3030  -8.8539  -2.5425  -1.5699   0.4545   0.5231
     0.7970   0.8235   0.8581   1.5139   1.6685   1.7343   2.0009   2.7151
     3.8122   4.4116   6.1046   6.1230   6.2337   6.2653   6.4272   6.4663
     6.4739   6.5641   8.8622   9.0197   9.2317   9.6099  11.1158  11.6493
    12.1070  13.0353  13.2798  13.5085  13.7861  13.9803  14.5478  14.7549
    15.3232  15.3528  15.8298  16.2782  16.3079  16.6169  17.6158  18.0790
    18.2711  18.8073  18.8240  19.0431

     occupation numbers 
     1.0000   1.0000   1.0000   1.0000   1.0000   1.0000   1.0000   1.0000
     1.0000   1.0000   1.0000   1.0000   1.0000   1.0000   1.0000   1.0000
     1.0000   1.0000   1.0000   1.0000   1.0000   1.0000   1.0000   1.0245
    -0.0014  -0.0000  -0.0000  -0.0000  -0.0000  -0.0000  -0.0000  -0.0000
    -0.0000  -0.0000  -0.0000  -0.0000  -0.0000  -0.0000  -0.0000  -0.0000
    -0.0000  -0.0000  -0.0000  -0.0000  -0.0000  -0.0000  -0.0000  -0.0000
    -0.0000  -0.0000  -0.0000  -0.0000  -0.0000  -0.0000  -0.0000  -0.0000
    -0.0000  -0.0000  -0.0000  -0.0000

          k = 0.0000 0.1925 0.0000 (  5419 PWs)   bands (ev):

   -51.4882 -51.4881 -27.7030 -27.7026 -27.6170 -27.6149 -27.5274 -27.5253
   -10.4066 -10.0078  -9.1973  -8.8006  -2.2804  -1.3172  -0.1272   0.0027
     0.3035   0.9179   1.0140   1.1337   1.3105   1.3774   1.9654   2.7256
     3.5267   3.8066   5.8919   6.0169   6.1384   6.2094   6.3095   6.7349
     6.8112   7.0297   9.3508   9.7420  10.2026  10.4127  11.4798  12.1215
    12.4476  12.8201  13.2538  13.6228  13.6861  14.4802  14.4927  14.8069
    15.0144  15.3520  15.5167  16.2780  16.3777  16.4738  17.0103  17.5392
    17.7152  18.6536  18.6969  19.1828

     occupation numbers 
     1.0000   1.0000   1.0000   1.0000   1.0000   1.0000   1.0000   1.0000
     1.0000   1.0000   1.0000   1.0000   1.0000   1.0000   1.0000   1.0000
     1.0000   1.0000   1.0000   1.0000   1.0000   1.0000   1.0000   1.0262
    -0.0313  -0.0015  -0.0000  -0.0000  -0.0000  -0.0000  -0.0000  -0.0000
    -0.0000  -0.0000  -0.0000  -0.0000  -0.0000  -0.0000  -0.0000  -0.0000
    -0.0000  -0.0000  -0.0000  -0.0000  -0.0000  -0.0000  -0.0000  -0.0000
    -0.0000  -0.0000  -0.0000  -0.0000  -0.0000  -0.0000  -0.0000  -0.0000
    -0.0000  -0.0000  -0.0000  -0.0000

          k = 0.0000 0.2887 0.0000 (  5403 PWs)   bands (ev):

   -51.4771 -51.4771 -27.7298 -27.7274 -27.6783 -27.6779 -27.5526 -27.5505
   -10.0154  -9.6315  -9.0411  -8.7273  -2.0466  -1.2371  -0.6477  -0.4551
    -0.1847   0.3045   0.8119   0.9684   1.4180   1.5160   1.6725   2.5388
     3.0279   3.2662   5.8191   5.8932   6.1691   6.2922   6.5031   7.1314
     7.2786   7.5717   9.8998  10.2297  10.8702  11.4447  11.7628  12.0596
    12.1306  12.7643  12.8810  13.7910  14.0918  14.7546  14.8864  15.1584
    15.3809  15.4823  15.8882  16.1863  16.4005  16.6262  16.8011  16.9481
    17.1485  18.1160  18.4277  19.2867

     occupation numbers 
     1.0000   1.0000   1.0000   1.0000   1.0000   1.0000   1.0000   1.0000
     1.0000   1.0000   1.0000   1.0000   1.0000   1.0000   1.0000   1.0000
     1.0000   1.0000   1.0000   1.0000   1.0000   1.0000   1.0000   1.0037
     0.8232   0.1553  -0.0000  -0.0000  -0.0000  -0.0000  -0.0000  -0.0000
    -0.0000  -0.0000  -0.0000  -0.0000  -0.0000  -0.0000  -0.0000  -0.0000
    -0.0000  -0.0000  -0.0000  -0.0000  -0.0000  -0.0000  -0.0000  -0.0000
    -0.0000  -0.0000  -0.0000  -0.0000  -0.0000  -0.0000  -0.0000  -0.0000
    -0.0000  -0.0000  -0.0000  -0.0000

          k = 0.0000 0.3849 0.0000 (  5411 PWs)   bands (ev):

   -51.4660 -51.4660 -27.8403 -27.8378 -27.6535 -27.6532 -27.5776 -27.5756
    -9.5790  -9.2323  -8.8654  -8.6566  -2.0952  -1.6753  -1.0288  -0.6414
    -0.3995  -0.1461   0.4654   0.6233   1.3851   1.7159   1.8918   2.3142
     2.7477   2.9811   5.9384   6.0361   6.1438   6.5181   6.9142   7.4440
     7.6191   8.0081  10.3110  10.5671  10.6756  11.3061  11.5057  11.7978
    11.9500  12.9162  13.2717  14.0692  14.4588  14.5927  14.8026  15.0293
    15.4444  15.6030  16.2127  16.4518  16.6749  17.1240  17.4110  17.4591
    17.8693  17.9648  18.2434  18.2685

     occupation numbers 
     1.0000   1.0000   1.0000   1.0000   1.0000   1.0000   1.0000   1.0000
     1.0000   1.0000   1.0000   1.0000   1.0000   1.0000   1.0000   1.0000
     1.0000   1.0000   1.0000   1.0000   1.0000   1.0000   1.0000   1.0001
     1.0298   0.9165  -0.0000  -0.0000  -0.0000  -0.0000  -0.0000  -0.0000
    -0.0000  -0.0000  -0.0000  -0.0000  -0.0000  -0.0000  -0.0000  -0.0000
    -0.0000  -0.0000  -0.0000  -0.0000  -0.0000  -0.0000  -0.0000  -0.0000
    -0.0000  -0.0000  -0.0000  -0.0000  -0.0000  -0.0000  -0.0000  -0.0000
    -0.0000  -0.0000  -0.0000  -0.0000

          k = 0.0000 0.4811 0.0000 (  5401 PWs)   bands (ev):

   -51.4579 -51.4578 -27.9198 -27.9172 -27.6353 -27.6350 -27.5959 -27.5938
    -9.2095  -8.9329  -8.7165  -8.6102  -2.2901  -2.1008  -1.3725  -0.8988
    -0.4747  -0.3542   0.2372   0.3989   1.2130   1.9093   2.1520   2.2034
     2.8175   3.0553   6.1198   6.2314   6.3989   6.7051   7.1036   7.6241
     7.7936   8.2680   9.6747  10.2204  10.9877  11.0838  11.3610  11.7917
    12.2773  12.9047  13.4864  13.7880  13.8061  14.3388  14.7054  14.7642
    15.1706  15.4765  16.3215  16.6884  17.0963  17.2423  18.1150  18.2534
    18.4363  18.8854  18.9201  19.3468

     occupation numbers 
     1.0000   1.0000   1.0000   1.0000   1.0000   1.0000   1.0000   1.0000
     1.0000   1.0000   1.0000   1.0000   1.0000   1.0000   1.0000   1.0000
     1.0000   1.0000   1.0000   1.0000   1.0000   1.0000   1.0000   1.0000
     1.0353   0.7556  -0.0000  -0.0000  -0.0000  -0.0000  -0.0000  -0.0000
    -0.0000  -0.0000  -0.0000  -0.0000  -0.0000  -0.0000  -0.0000  -0.0000
    -0.0000  -0.0000  -0.0000  -0.0000  -0.0000  -0.0000  -0.0000  -0.0000
    -0.0000  -0.0000  -0.0000  -0.0000  -0.0000  -0.0000  -0.0000  -0.0000
    -0.0000  -0.0000  -0.0000  -0.0000

          k = 0.0000-0.5774 0.0000 (  5412 PWs)   bands (ev):

   -51.4549 -51.4548 -27.9487 -27.9460 -27.6287 -27.6283 -27.6025 -27.6005
    -9.0506  -8.8362  -8.6546  -8.5920  -2.3700  -2.2763  -1.5036  -1.0203
    -0.5331  -0.4211   0.1584   0.3215   1.1577   1.9718   2.1758   2.2417
     2.9398   3.1530   6.2286   6.2944   6.6933   6.7295   7.0933   7.6865
     7.8421   8.3509   9.1827  10.0372  10.7333  11.3114  11.4946  12.0021
    12.5978  12.7444  13.3581  13.4508  13.8675  14.2938  14.4504  14.7143
    14.8068  14.9773  16.2972  16.4691  17.6683  17.7766  18.0446  18.5578
    18.9768  19.3997  19.4915  19.9336

     occupation numbers 
     1.0000   1.0000   1.0000   1.0000   1.0000   1.0000   1.0000   1.0000
     1.0000   1.0000   1.0000   1.0000   1.0000   1.0000   1.0000   1.0000
     1.0000   1.0000   1.0000   1.0000   1.0000   1.0000   1.0000   1.0000
     0.9742   0.4665  -0.0000  -0.0000  -0.0000  -0.0000  -0.0000  -0.0000
    -0.0000  -0.0000  -0.0000  -0.0000  -0.0000  -0.0000  -0.0000  -0.0000
    -0.0000  -0.0000  -0.0000  -0.0000  -0.0000  -0.0000  -0.0000  -0.0000
    -0.0000  -0.0000  -0.0000  -0.0000  -0.0000  -0.0000  -0.0000  -0.0000
    -0.0000  -0.0000  -0.0000  -0.0000

          k = 0.0833 0.1443 0.0000 (  5395 PWs)   bands (ev):

   -51.4907 -51.4907 -27.7086 -27.7082 -27.5891 -27.5879 -27.5220 -27.5209
   -10.4926 -10.0919  -9.2317  -8.8177  -2.3570  -1.3866   0.0616   0.1474
     0.4649   0.9618   1.0162   1.1154   1.3580   1.3673   2.1177   2.7782
     3.6419   3.9513   5.9774   6.0841   6.1275   6.2067   6.2159   6.5689
     6.7297   6.9704   9.2276   9.5968   9.9291  10.0984  11.3673  12.2203
    12.4445  12.8008  13.2526  13.4830  13.8489  14.2614  14.4688  14.6310
    15.0639  15.0723  15.7690  15.9760  16.4173  16.6875  17.4872  17.5953
    18.1003  18.3880  18.7577  19.1053

     occupation numbers 
     1.0000   1.0000   1.0000   1.0000   1.0000   1.0000   1.0000   1.0000
     1.0000   1.0000   1.0000   1.0000   1.0000   1.0000   1.0000   1.0000
     1.0000   1.0000   1.0000   1.0000   1.0000   1.0000   1.0000   1.0338
    -0.0131  -0.0001  -0.0000  -0.0000  -0.0000  -0.0000  -0.0000  -0.0000
    -0.0000  -0.0000  -0.0000  -0.0000  -0.0000  -0.0000  -0.0000  -0.0000
    -0.0000  -0.0000  -0.0000  -0.0000  -0.0000  -0.0000  -0.0000  -0.0000
    -0.0000  -0.0000  -0.0000  -0.0000  -0.0000  -0.0000  -0.0000  -0.0000
    -0.0000  -0.0000  -0.0000  -0.0000

          k = 0.0833 0.2406 0.0000 (  5411 PWs)   bands (ev):

   -51.4812 -51.4811 -27.6874 -27.6870 -27.6826 -27.6825 -27.5477 -27.5474
   -10.1630  -9.7715  -9.0999  -8.7537  -2.0917  -1.1697  -0.4553  -0.3269
     0.0294   0.5195   0.7664   0.9645   1.2286   1.3148   2.0602   2.6973
     3.2439   3.3780   5.7915   5.9783   6.0593   6.1905   6.3057   6.8187
     7.2723   7.5138   9.7187  10.1103  10.9818  11.2764  11.7889  12.0059
    12.1951  12.8851  13.1765  13.7233  13.8303  14.4143  14.6161  14.9300
    14.9983  15.2671  15.3867  16.0786  16.2273  16.9638  17.0067  17.2131
    17.8132  17.8602  18.5082  19.3437

     occupation numbers 
     1.0000   1.0000   1.0000   1.0000   1.0000   1.0000   1.0000   1.0000
     1.0000   1.0000   1.0000   1.0000   1.0000   1.0000   1.0000   1.0000
     1.0000   1.0000   1.0000   1.0000   1.0000   1.0000   1.0000   1.0214
     0.2069  -0.0051  -0.0000  -0.0000  -0.0000  -0.0000  -0.0000  -0.0000
    -0.0000  -0.0000  -0.0000  -0.0000  -0.0000  -0.0000  -0.0000  -0.0000
    -0.0000  -0.0000  -0.0000  -0.0000  -0.0000  -0.0000  -0.0000  -0.0000
    -0.0000  -0.0000  -0.0000  -0.0000  -0.0000  -0.0000  -0.0000  -0.0000
    -0.0000  -0.0000  -0.0000  -0.0000

          k = 0.0833 0.3368 0.0000 (  5405 PWs)   bands (ev):

   -51.4701 -51.4700 -27.7897 -27.7886 -27.6626 -27.6623 -27.5781 -27.5771
    -9.7468  -9.3808  -8.9312  -8.6796  -1.9923  -1.3968  -0.7967  -0.5805
    -0.3257  -0.0451   0.3700   0.6815   1.3920   1.5700   1.8021   2.4773
     2.8631   3.0088   5.7772   5.9787   6.1808   6.4065   6.6311   7.1282
     7.7571   7.9098  10.3178  10.5633  11.0539  11.4361  11.9117  11.9944
    12.2864  12.8792  13.1499  13.8768  13.9465  14.5460  14.6992  15.0023
    15.2843  15.4324  15.7481  16.0259  16.4068  16.7185  17.3051  17.4134
    17.8405  18.2020  18.4969  18.7195

     occupation numbers 
     1.0000   1.0000   1.0000   1.0000   1.0000   1.0000   1.0000   1.0000
     1.0000   1.0000   1.0000   1.0000   1.0000   1.0000   1.0000   1.0000
     1.0000   1.0000   1.0000   1.0000   1.0000   1.0000   1.0000   1.0015
     1.0276   0.8648  -0.0000  -0.0000  -0.0000  -0.0000  -0.0000  -0.0000
    -0.0000  -0.0000  -0.0000  -0.0000  -0.0000  -0.0000  -0.0000  -0.0000
    -0.0000  -0.0000  -0.0000  -0.0000  -0.0000  -0.0000  -0.0000  -0.0000
    -0.0000  -0.0000  -0.0000  -0.0000  -0.0000  -0.0000  -0.0000  -0.0000
    -0.0000  -0.0000  -0.0000  -0.0000

          k = 0.0833 0.4330 0.0000 (  5419 PWs)   bands (ev):

   -51.4604 -51.4604 -27.8806 -27.8788 -27.6411 -27.6408 -27.6043 -27.6028
    -9.3380  -9.0258  -8.7634  -8.6195  -2.1350  -1.8438  -1.2236  -0.8536
    -0.4145  -0.3155   0.2028   0.4915   1.3769   1.5847   1.7484   2.2693
     2.8372   3.0236   5.9973   6.1517   6.3981   6.5887   7.0348   7.3734
     7.9514   8.1055  10.2504  10.5865  10.9514  11.5436  11.5874  11.7115
    12.2182  13.0250  13.4068  13.5632  13.9160  14.4770  14.8345  14.9571
    15.3849  15.6627  16.2440  16.4240  16.7927  17.0214  17.2519  17.6182
    18.0020  18.3733  18.8440  19.0822

     occupation numbers 
     1.0000   1.0000   1.0000   1.0000   1.0000   1.0000   1.0000   1.0000
     1.0000   1.0000   1.0000   1.0000   1.0000   1.0000   1.0000   1.0000
     1.0000   1.0000   1.0000   1.0000   1.0000   1.0000   1.0000   1.0000
     1.0336   0.8330  -0.0000  -0.0000  -0.0000  -0.0000  -0.0000  -0.0000
    -0.0000  -0.0000  -0.0000  -0.0000  -0.0000  -0.0000  -0.0000  -0.0000
    -0.0000  -0.0000  -0.0000  -0.0000  -0.0000  -0.0000  -0.0000  -0.0000
    -0.0000  -0.0000  -0.0000  -0.0000  -0.0000  -0.0000  -0.0000  -0.0000
    -0.0000  -0.0000  -0.0000  -0.0000

          k = 0.0833 0.5292 0.0000 (  5416 PWs)   bands (ev):

   -51.4549 -51.4548 -27.9325 -27.9302 -27.6287 -27.6284 -27.6195 -27.6176
    -9.0605  -8.8314  -8.6507  -8.5858  -2.2558  -2.1497  -1.4974  -1.1139
    -0.4953  -0.4337   0.1569   0.3983   1.2533   1.5509   1.8687   2.1524
     3.0169   3.2282   6.1646   6.2636   6.6639   6.7999   7.2508   7.5588
     7.8166   8.1870   9.4404  10.3294  11.1602  11.5019  11.7051  12.0936
    12.5996  12.7933  12.9389  13.6322  13.7166  14.1579  14.6116  14.7463
    15.0744  15.5093  16.1964  16.7345  17.2516  17.3577  17.8936  18.0586
    18.3006  18.8041  19.0500  19.4446

     occupation numbers 
     1.0000   1.0000   1.0000   1.0000   1.0000   1.0000   1.0000   1.0000
     1.0000   1.0000   1.0000   1.0000   1.0000   1.0000   1.0000   1.0000
     1.0000   1.0000   1.0000   1.0000   1.0000   1.0000   1.0000   1.0000
     0.8477   0.2469  -0.0000  -0.0000  -0.0000  -0.0000  -0.0000  -0.0000
    -0.0000  -0.0000  -0.0000  -0.0000  -0.0000  -0.0000  -0.0000  -0.0000
    -0.0000  -0.0000  -0.0000  -0.0000  -0.0000  -0.0000  -0.0000  -0.0000
    -0.0000  -0.0000  -0.0000  -0.0000  -0.0000  -0.0000  -0.0000  -0.0000
    -0.0000  -0.0000  -0.0000  -0.0000

          k = 0.1667 0.2887 0.0000 (  5418 PWs)   bands (ev):

   -51.4715 -51.4715 -27.7645 -27.7631 -27.6659 -27.6656 -27.5858 -27.5846
    -9.8064  -9.4343  -8.9539  -8.6873  -1.9389  -1.2350  -0.6096  -0.6034
    -0.2307  -0.0893   0.2281   0.6606   1.2146   1.3704   2.1080   2.5653
     2.9443   2.9868   5.6783   5.9693   6.1958   6.3445   6.4482   6.9601
     7.8281   7.9696  10.2768  10.6084  11.6071  11.6253  11.9075  12.3627
    12.4749  12.8982  12.9358  13.8447  13.8619  14.3436  14.4456  14.5364
    14.8252  15.2109  15.3072  16.0336  16.3475  16.6490  17.4172  17.8150
    17.9351  18.1913  18.4496  19.6261

     occupation numbers 
     1.0000   1.0000   1.0000   1.0000   1.0000   1.0000   1.0000   1.0000
     1.0000   1.0000   1.0000   1.0000   1.0000   1.0000   1.0000   1.0000
     1.0000   1.0000   1.0000   1.0000   1.0000   1.0000   1.0000   1.0053
     0.9691   0.9068  -0.0000  -0.0000  -0.0000  -0.0000  -0.0000  -0.0000
    -0.0000  -0.0000  -0.0000  -0.0000  -0.0000  -0.0000  -0.0000  -0.0000
    -0.0000  -0.0000  -0.0000  -0.0000  -0.0000  -0.0000  -0.0000  -0.0000
    -0.0000  -0.0000  -0.0000  -0.0000  -0.0000  -0.0000  -0.0000  -0.0000
    -0.0000  -0.0000  -0.0000  -0.0000

          k = 0.1667 0.3849 0.0000 (  5409 PWs)   bands (ev):

   -51.4619 -51.4619 -27.8395 -27.8394 -27.6444 -27.6442 -27.6272 -27.6271
    -9.4114  -9.0806  -8.7865  -8.6207  -1.9634  -1.5263  -1.0541  -0.8941
    -0.4100  -0.2360   0.0434   0.5619   1.0039   1.2012   1.8668   2.3093
     2.8771   2.9823   5.7764   6.2389   6.4543   6.4875   6.7689   7.1715
     8.1312   8.1982  10.8289  10.9987  11.0659  11.3878  12.0564  12.3250
    12.5644  13.0053  13.3052  13.6608  13.9561  14.2914  14.7223  14.7525
    15.1498  15.3754  15.5367  15.6742  16.3979  17.0247  17.2965  17.7785
    18.1220  18.3010  18.7239  19.0615

     occupation numbers 
     1.0000   1.0000   1.0000   1.0000   1.0000   1.0000   1.0000   1.0000
     1.0000   1.0000   1.0000   1.0000   1.0000   1.0000   1.0000   1.0000
     1.0000   1.0000   1.0000   1.0000   1.0000   1.0000   1.0000   1.0001
     1.0223   0.9144  -0.0000  -0.0000  -0.0000  -0.0000  -0.0000  -0.0000
    -0.0000  -0.0000  -0.0000  -0.0000  -0.0000  -0.0000  -0.0000  -0.0000
    -0.0000  -0.0000  -0.0000  -0.0000  -0.0000  -0.0000  -0.0000  -0.0000
    -0.0000  -0.0000  -0.0000  -0.0000  -0.0000  -0.0000  -0.0000  -0.0000
    -0.0000  -0.0000  -0.0000  -0.0000

          k = 0.1667 0.4811 0.0000 (  5406 PWs)   bands (ev):

   -51.4549 -51.4548 -27.8933 -27.8920 -27.6598 -27.6587 -27.6287 -27.6284
    -9.0787  -8.8239  -8.6426  -8.5731  -2.0316  -1.8022  -1.4763  -1.2896
    -0.4359  -0.3399   0.1089   0.5411   0.7923   1.1365   1.5184   2.0735
     3.0922   3.2322   5.9633   6.1916   6.6614   6.8528   7.1571   7.4377
     7.9751   8.3150  10.0337  10.8787  11.5143  11.6156  12.0810  12.2838
    12.5307  12.8531  13.3619  13.7155  13.8051  14.2163  14.8391  15.0515
    15.4798  15.6134  16.1124  16.3565  16.5193  16.7230  17.1668  17.4940
    17.5794  18.2702  18.6028  18.8639

     occupation numbers 
     1.0000   1.0000   1.0000   1.0000   1.0000   1.0000   1.0000   1.0000
     1.0000   1.0000   1.0000   1.0000   1.0000   1.0000   1.0000   1.0000
     1.0000   1.0000   1.0000   1.0000   1.0000   1.0000   1.0000   1.0000
     0.6527   0.2364  -0.0000  -0.0000  -0.0000  -0.0000  -0.0000  -0.0000
    -0.0000  -0.0000  -0.0000  -0.0000  -0.0000  -0.0000  -0.0000  -0.0000
    -0.0000  -0.0000  -0.0000  -0.0000  -0.0000  -0.0000  -0.0000  -0.0000
    -0.0000  -0.0000  -0.0000  -0.0000  -0.0000  -0.0000  -0.0000  -0.0000
    -0.0000  -0.0000  -0.0000  -0.0000

          k = 0.1667 0.5774 0.0000 (  5414 PWs)   bands (ev):

   -51.4523 -51.4522 -27.9129 -27.9103 -27.6725 -27.6703 -27.6229 -27.6227
    -8.9327  -8.7515  -8.5827  -8.5498  -2.0142  -1.9653  -1.6132  -1.4444
    -0.4825  -0.4307   0.1817   0.5515   0.7192   1.1585   1.3477   1.9692
     3.2521   3.4207   5.9539   6.0232   6.8759   7.0724   7.4410   7.5477
     7.7657   8.2900   9.6220  10.7145  11.4403  12.0566  12.3699  12.4509
    12.4674  12.9713  13.0448  13.4679  13.8035  14.4964  14.5391  14.9930
    15.2679  15.5186  16.2922  16.7271  16.8346  17.0285  17.1953  17.3441
    17.5944  18.3226  18.6653  19.0293

     occupation numbers 
     1.0000   1.0000   1.0000   1.0000   1.0000   1.0000   1.0000   1.0000
     1.0000   1.0000   1.0000   1.0000   1.0000   1.0000   1.0000   1.0000
     1.0000   1.0000   1.0000   1.0000   1.0000   1.0000   1.0000   1.0000
     0.1872  -0.0274  -0.0000  -0.0000  -0.0000  -0.0000  -0.0000  -0.0000
    -0.0000  -0.0000  -0.0000  -0.0000  -0.0000  -0.0000  -0.0000  -0.0000
    -0.0000  -0.0000  -0.0000  -0.0000  -0.0000  -0.0000  -0.0000  -0.0000
    -0.0000  -0.0000  -0.0000  -0.0000  -0.0000  -0.0000  -0.0000  -0.0000
    -0.0000  -0.0000  -0.0000  -0.0000

          k = 0.2500 0.4330 0.0000 (  5388 PWs)   bands (ev):

   -51.4549 -51.4548 -27.8679 -27.8665 -27.6863 -27.6851 -27.6287 -27.6285
    -9.0870  -8.8209  -8.6386  -8.5668  -1.9123  -1.5919  -1.4217  -1.3643
    -0.4417  -0.1580   0.0371   0.5393   0.5544   0.6348   1.6793   1.9947
     3.1314   3.1920   5.8506   6.1378   6.6644   6.8294   7.0296   7.3713
     8.2950   8.4099  10.6094  10.7498  11.5127  11.5260  12.0228  12.4693
    12.8166  13.2294  13.5742  14.0340  14.2047  14.2337  14.9572  15.1769
    15.2400  15.5838  15.7159  15.7582  15.8925  16.8225  16.9766  17.3192
    17.6160  18.0170  18.0847  18.7073

     occupation numbers 
     1.0000   1.0000   1.0000   1.0000   1.0000   1.0000   1.0000   1.0000
     1.0000   1.0000   1.0000   1.0000   1.0000   1.0000   1.0000   1.0000
     1.0000   1.0000   1.0000   1.0000   1.0000   1.0000   1.0000   1.0000
     0.5337   0.3480  -0.0000  -0.0000  -0.0000  -0.0000  -0.0000  -0.0000
    -0.0000  -0.0000  -0.0000  -0.0000  -0.0000  -0.0000  -0.0000  -0.0000
    -0.0000  -0.0000  -0.0000  -0.0000  -0.0000  -0.0000  -0.0000  -0.0000
    -0.0000  -0.0000  -0.0000  -0.0000  -0.0000  -0.0000  -0.0000  -0.0000
    -0.0000  -0.0000  -0.0000  -0.0000

          k = 0.2500 0.5292 0.0000 (  5370 PWs)   bands (ev):

   -51.4508 -51.4508 -27.8735 -27.8727 -27.7300 -27.7292 -27.6196 -27.6194
    -8.8610  -8.7080  -8.5387  -8.5226  -1.8928  -1.8029  -1.5554  -1.3875
    -0.5689  -0.2091  -0.0955   0.2653   0.4242   0.7538   1.4202   1.7226
     3.4636   3.5284   5.6448   5.7057   6.9040   6.9987   7.3870   7.6620
     8.3445   8.5513  10.0845  10.7066  11.1569  11.8488  12.1282  13.0835
    13.2645  13.4090  13.6184  14.1330  14.3532  14.6144  14.8239  15.1859
    15.2691  15.6783  15.9313  16.0582  16.2153  16.4217  16.8437  16.9147
    17.2632  17.6403  17.8775  18.7055

     occupation numbers 
     1.0000   1.0000   1.0000   1.0000   1.0000   1.0000   1.0000   1.0000
     1.0000   1.0000   1.0000   1.0000   1.0000   1.0000   1.0000   1.0000
     1.0000   1.0000   1.0000   1.0000   1.0000   1.0000   1.0000   1.0000
    -0.0351  -0.0310  -0.0000  -0.0000  -0.0000  -0.0000  -0.0000  -0.0000
    -0.0000  -0.0000  -0.0000  -0.0000  -0.0000  -0.0000  -0.0000  -0.0000
    -0.0000  -0.0000  -0.0000  -0.0000  -0.0000  -0.0000  -0.0000  -0.0000
    -0.0000  -0.0000  -0.0000  -0.0000  -0.0000  -0.0000  -0.0000  -0.0000
    -0.0000  -0.0000  -0.0000  -0.0000

          k = 0.3333 0.5774 0.0000 (  5394 PWs)   bands (ev):

   -51.4493 -51.4493 -27.8439 -27.8437 -27.7776 -27.7776 -27.6163 -27.6161
    -8.7290  -8.7262  -8.4952  -8.4950  -1.9376  -1.9363  -1.3121  -0.8756
    -0.7908  -0.7879  -0.0355  -0.0343   0.3879   0.9088   1.4111   1.4169
     3.7257   3.7259   5.3625   5.3737   6.9397   6.9429   7.7215   7.7251
     8.6359   8.6379  10.0915  10.8061  10.8134  11.5619  12.2205  13.6991
    13.7005  14.1041  14.1063  14.2781  14.5200  14.5205  14.7210  15.2396
    15.2426  15.6497  15.7173  15.7928  16.3602  16.3612  16.6344  16.6376
    16.6389  17.3296  18.1255  18.7154

     occupation numbers 
     1.0000   1.0000   1.0000   1.0000   1.0000   1.0000   1.0000   1.0000
     1.0000   1.0000   1.0000   1.0000   1.0000   1.0000   1.0000   1.0000
     1.0000   1.0000   1.0000   1.0000   1.0000   1.0000   1.0000   1.0000
    -0.0049  -0.0049  -0.0000  -0.0000  -0.0000  -0.0000  -0.0000  -0.0000
    -0.0000  -0.0000  -0.0000  -0.0000  -0.0000  -0.0000  -0.0000  -0.0000
    -0.0000  -0.0000  -0.0000  -0.0000  -0.0000  -0.0000  -0.0000  -0.0000
    -0.0000  -0.0000  -0.0000  -0.0000  -0.0000  -0.0000  -0.0000  -0.0000
    -0.0000  -0.0000  -0.0000  -0.0000

          k =-0.0833 0.0481 0.0000 (  5423 PWs)   bands (ev):

   -51.4962 -51.4962 -27.7209 -27.7205 -27.5321 -27.5311 -27.5088 -27.5077
   -10.6732 -10.2704  -9.3029  -8.8538  -2.5426  -1.5699   0.4535   0.5219
     0.7986   0.8241   0.8592   1.5178   1.6651   1.7278   2.0058   2.7145
     3.8127   4.4104   6.0992   6.1318   6.2316   6.2682   6.4207   6.4638
     6.4725   6.5719   8.8623   9.0200   9.2316   9.6098  11.1158  11.6493
    12.1054  13.0354  13.2770  13.5074  13.7869  13.9833  14.5514  14.7577
    15.3234  15.3478  15.8310  16.2797  16.3057  16.6161  17.6080  18.0919
    18.2720  18.8061  18.8215  19.0372

     occupation numbers 
     1.0000   1.0000   1.0000   1.0000   1.0000   1.0000   1.0000   1.0000
     1.0000   1.0000   1.0000   1.0000   1.0000   1.0000   1.0000   1.0000
     1.0000   1.0000   1.0000   1.0000   1.0000   1.0000   1.0000   1.0244
    -0.0014  -0.0000  -0.0000  -0.0000  -0.0000  -0.0000  -0.0000  -0.0000
    -0.0000  -0.0000  -0.0000  -0.0000  -0.0000  -0.0000  -0.0000  -0.0000
    -0.0000  -0.0000  -0.0000  -0.0000  -0.0000  -0.0000  -0.0000  -0.0000
    -0.0000  -0.0000  -0.0000  -0.0000  -0.0000  -0.0000  -0.0000  -0.0000
    -0.0000  -0.0000  -0.0000  -0.0000

          k = 0.0833 0.0481 0.0000 (  5423 PWs)   bands (ev):

   -51.4962 -51.4962 -27.7209 -27.7205 -27.5343 -27.5310 -27.5088 -27.5057
   -10.6731 -10.2703  -9.3031  -8.8540  -2.5425  -1.5698   0.4561   0.5248
     0.7950   0.8211   0.8571   1.5102   1.6713   1.7415   1.9975   2.7150
     3.8118   4.4105   6.1084   6.1252   6.2409   6.2648   6.4247   6.4631
     6.4681   6.5632   8.8620   9.0196   9.2317   9.6101  11.1160  11.6502
    12.1076  13.0360  13.2819  13.5089  13.7837  13.9786  14.5442  14.7557
    15.3207  15.3544  15.8305  16.2773  16.3122  16.6166  17.6184  18.0805
    18.2704  18.8118  18.8191  19.0441

     occupation numbers 
     1.0000   1.0000   1.0000   1.0000   1.0000   1.0000   1.0000   1.0000
     1.0000   1.0000   1.0000   1.0000   1.0000   1.0000   1.0000   1.0000
     1.0000   1.0000   1.0000   1.0000   1.0000   1.0000   1.0000   1.0245
    -0.0014  -0.0000  -0.0000  -0.0000  -0.0000  -0.0000  -0.0000  -0.0000
    -0.0000  -0.0000  -0.0000  -0.0000  -0.0000  -0.0000  -0.0000  -0.0000
    -0.0000  -0.0000  -0.0000  -0.0000  -0.0000  -0.0000  -0.0000  -0.0000
    -0.0000  -0.0000  -0.0000  -0.0000  -0.0000  -0.0000  -0.0000  -0.0000
    -0.0000  -0.0000  -0.0000  -0.0000

          k =-0.1667 0.0962 0.0000 (  5419 PWs)   bands (ev):

   -51.4882 -51.4881 -27.7030 -27.7026 -27.6159 -27.6148 -27.5274 -27.5263
   -10.4066 -10.0080  -9.1971  -8.8004  -2.2807  -1.3176  -0.1280   0.0016
     0.3049   0.9205   1.0136   1.1342   1.3090   1.3729   1.9694   2.7230
     3.5281   3.8061   5.8913   6.0182   6.1418   6.2098   6.3059   6.7278
     6.8137   7.0351   9.3510   9.7425  10.2025  10.4129  11.4798  12.1248
    12.4441  12.8137  13.2548  13.6231  13.6882  14.4836  14.4947  14.8094
    15.0137  15.3487  15.5175  16.2770  16.3766  16.4725  17.0104  17.5442
    17.7163  18.6500  18.6923  19.1814

     occupation numbers 
     1.0000   1.0000   1.0000   1.0000   1.0000   1.0000   1.0000   1.0000
     1.0000   1.0000   1.0000   1.0000   1.0000   1.0000   1.0000   1.0000
     1.0000   1.0000   1.0000   1.0000   1.0000   1.0000   1.0000   1.0258
    -0.0311  -0.0015  -0.0000  -0.0000  -0.0000  -0.0000  -0.0000  -0.0000
    -0.0000  -0.0000  -0.0000  -0.0000  -0.0000  -0.0000  -0.0000  -0.0000
    -0.0000  -0.0000  -0.0000  -0.0000  -0.0000  -0.0000  -0.0000  -0.0000
    -0.0000  -0.0000  -0.0000  -0.0000  -0.0000  -0.0000  -0.0000  -0.0000
    -0.0000  -0.0000  -0.0000  -0.0000

          k = 0.1667 0.0962 0.0000 (  5419 PWs)   bands (ev):

   -51.4882 -51.4881 -27.7029 -27.7026 -27.6183 -27.6148 -27.5274 -27.5242
   -10.4064 -10.0076  -9.1976  -8.8009  -2.2802  -1.3169  -0.1258   0.0039
     0.3008   0.9150   1.0128   1.1324   1.3132   1.3830   1.9656   2.7255
     3.5247   3.8045   5.8902   6.0194   6.1424   6.2148   6.3112   6.7341
     6.8046   7.0255   9.3509   9.7421  10.2017  10.4130  11.4802  12.1248
    12.4469  12.8197  13.2578  13.6224  13.6830  14.4804  14.4893  14.8067
    15.0132  15.3518  15.5172  16.2779  16.3807  16.4743  17.0106  17.5421
    17.7145  18.6557  18.6947  19.1830

     occupation numbers 
     1.0000   1.0000   1.0000   1.0000   1.0000   1.0000   1.0000   1.0000
     1.0000   1.0000   1.0000   1.0000   1.0000   1.0000   1.0000   1.0000
     1.0000   1.0000   1.0000   1.0000   1.0000   1.0000   1.0000   1.0262
    -0.0316  -0.0015  -0.0000  -0.0000  -0.0000  -0.0000  -0.0000  -0.0000
    -0.0000  -0.0000  -0.0000  -0.0000  -0.0000  -0.0000  -0.0000  -0.0000
    -0.0000  -0.0000  -0.0000  -0.0000  -0.0000  -0.0000  -0.0000  -0.0000
    -0.0000  -0.0000  -0.0000  -0.0000  -0.0000  -0.0000  -0.0000  -0.0000
    -0.0000  -0.0000  -0.0000  -0.0000

          k =-0.2500 0.1443 0.0000 (  5403 PWs)   bands (ev):

   -51.4771 -51.4771 -27.7286 -27.7274 -27.6783 -27.6780 -27.5526 -27.5515
   -10.0154  -9.6321  -9.0405  -8.7269  -2.0473  -1.2371  -0.6509  -0.4551
    -0.1829   0.3053   0.8082   0.9644   1.4199   1.5167   1.6770   2.5339
     3.0290   3.2699   5.8167   5.8938   6.1673   6.2962   6.5035   7.1237
     7.2812   7.5755   9.9003  10.2296  10.8704  11.4448  11.7660  12.0617
    12.1334  12.7559  12.8831  13.7888  14.0901  14.7553  14.8858  15.1602
    15.3831  15.4812  15.8906  16.1829  16.4031  16.6261  16.8055  16.9481
    17.1474  18.1116  18.4247  19.2864

     occupation numbers 
     1.0000   1.0000   1.0000   1.0000   1.0000   1.0000   1.0000   1.0000
     1.0000   1.0000   1.0000   1.0000   1.0000   1.0000   1.0000   1.0000
     1.0000   1.0000   1.0000   1.0000   1.0000   1.0000   1.0000   1.0035
     0.8206   0.1473  -0.0000  -0.0000  -0.0000  -0.0000  -0.0000  -0.0000
    -0.0000  -0.0000  -0.0000  -0.0000  -0.0000  -0.0000  -0.0000  -0.0000
    -0.0000  -0.0000  -0.0000  -0.0000  -0.0000  -0.0000  -0.0000  -0.0000
    -0.0000  -0.0000  -0.0000  -0.0000  -0.0000  -0.0000  -0.0000  -0.0000
    -0.0000  -0.0000  -0.0000  -0.0000

          k = 0.2500 0.1443 0.0000 (  5403 PWs)   bands (ev):

   -51.4771 -51.4771 -27.7311 -27.7273 -27.6783 -27.6779 -27.5526 -27.5494
   -10.0151  -9.6311  -9.0416  -8.7280  -2.0463  -1.2367  -0.6472  -0.4547
    -0.1852   0.3031   0.8140   0.9720   1.4182   1.5154   1.6741   2.5372
     3.0241   3.2644   5.8185   5.8944   6.1699   6.2956   6.5071   7.1320
     7.2739   7.5685   9.9002  10.2301  10.8689  11.4435  11.7625  12.0575
    12.1336  12.7635  12.8836  13.7913  14.0941  14.7565  14.8875  15.1572
    15.3785  15.4818  15.8879  16.1880  16.3987  16.6271  16.7983  16.9488
    17.1454  18.1149  18.4275  19.2848

     occupation numbers 
     1.0000   1.0000   1.0000   1.0000   1.0000   1.0000   1.0000   1.0000
     1.0000   1.0000   1.0000   1.0000   1.0000   1.0000   1.0000   1.0000
     1.0000   1.0000   1.0000   1.0000   1.0000   1.0000   1.0000   1.0036
     0.8318   0.1593  -0.0000  -0.0000  -0.0000  -0.0000  -0.0000  -0.0000
    -0.0000  -0.0000  -0.0000  -0.0000  -0.0000  -0.0000  -0.0000  -0.0000
    -0.0000  -0.0000  -0.0000  -0.0000  -0.0000  -0.0000  -0.0000  -0.0000
    -0.0000  -0.0000  -0.0000  -0.0000  -0.0000  -0.0000  -0.0000  -0.0000
    -0.0000  -0.0000  -0.0000  -0.0000

          k =-0.3333 0.1925 0.0000 (  5411 PWs)   bands (ev):

   -51.4660 -51.4660 -27.8390 -27.8377 -27.6536 -27.6533 -27.5777 -27.5766
    -9.5786  -9.2334  -8.8646  -8.6560  -2.0961  -1.6747  -1.0335  -0.6402
    -0.3992  -0.1464   0.4623   0.6201   1.3907   1.7170   1.8917   2.3079
     2.7481   2.9881   5.9390   6.0333   6.1434   6.5211   6.9133   7.4377
     7.6211   8.0107  10.3119  10.5671  10.6752  11.3124  11.5051  11.7954
    11.9526  12.9118  13.2724  14.0673  14.4580  14.5960  14.8015  15.0314
    15.4445  15.6048  16.2140  16.4542  16.6719  17.1243  17.4091  17.4594
    17.8657  17.9681  18.2433  18.2679

     occupation numbers 
     1.0000   1.0000   1.0000   1.0000   1.0000   1.0000   1.0000   1.0000
     1.0000   1.0000   1.0000   1.0000   1.0000   1.0000   1.0000   1.0000
     1.0000   1.0000   1.0000   1.0000   1.0000   1.0000   1.0000   1.0001
     1.0299   0.9044  -0.0000  -0.0000  -0.0000  -0.0000  -0.0000  -0.0000
    -0.0000  -0.0000  -0.0000  -0.0000  -0.0000  -0.0000  -0.0000  -0.0000
    -0.0000  -0.0000  -0.0000  -0.0000  -0.0000  -0.0000  -0.0000  -0.0000
    -0.0000  -0.0000  -0.0000  -0.0000  -0.0000  -0.0000  -0.0000  -0.0000
    -0.0000  -0.0000  -0.0000  -0.0000

          k = 0.3333 0.1925 0.0000 (  5411 PWs)   bands (ev):

   -51.4660 -51.4660 -27.8417 -27.8377 -27.6535 -27.6532 -27.5776 -27.5745
    -9.5785  -9.2316  -8.8663  -8.6577  -2.0950  -1.6754  -1.0292  -0.6400
    -0.3975  -0.1460   0.4675   0.6265   1.3862   1.7164   1.8918   2.3105
     2.7430   2.9799   5.9388   6.0358   6.1436   6.5208   6.9181   7.4463
     7.6154   8.0058  10.3106  10.5666  10.6754  11.3061  11.5057  11.7968
    11.9513  12.9166  13.2740  14.0684  14.4598  14.5915  14.8024  15.0280
    15.4433  15.6052  16.2150  16.4513  16.6721  17.1195  17.4102  17.4583
    17.8703  17.9624  18.2432  18.2690

     occupation numbers 
     1.0000   1.0000   1.0000   1.0000   1.0000   1.0000   1.0000   1.0000
     1.0000   1.0000   1.0000   1.0000   1.0000   1.0000   1.0000   1.0000
     1.0000   1.0000   1.0000   1.0000   1.0000   1.0000   1.0000   1.0001
     1.0291   0.9185  -0.0000  -0.0000  -0.0000  -0.0000  -0.0000  -0.0000
    -0.0000  -0.0000  -0.0000  -0.0000  -0.0000  -0.0000  -0.0000  -0.0000
    -0.0000  -0.0000  -0.0000  -0.0000  -0.0000  -0.0000  -0.0000  -0.0000
    -0.0000  -0.0000  -0.0000  -0.0000  -0.0000  -0.0000  -0.0000  -0.0000
    -0.0000  -0.0000  -0.0000  -0.0000

          k =-0.4167 0.2406 0.0000 (  5401 PWs)   bands (ev):

   -51.4579 -51.4578 -27.9185 -27.9172 -27.6353 -27.6351 -27.5959 -27.5948
    -9.2079  -8.9348  -8.7157  -8.6097  -2.2911  -2.0997  -1.3768  -0.8990
    -0.4764  -0.3530   0.2344   0.3960   1.2194   1.9099   2.1512   2.1984
     2.8177   3.0614   6.1208   6.2322   6.3969   6.7070   7.0994   7.6222
     7.7947   8.2702   9.6769  10.2202  10.9886  11.0829  11.3594  11.7928
    12.2758  12.9047  13.4835  13.7913  13.8048  14.3477  14.7047  14.7651
    15.1741  15.4766  16.3186  16.6883  17.0919  17.2439  18.1112  18.2552
    18.4345  18.8908  18.9134  19.3516

     occupation numbers 
     1.0000   1.0000   1.0000   1.0000   1.0000   1.0000   1.0000   1.0000
     1.0000   1.0000   1.0000   1.0000   1.0000   1.0000   1.0000   1.0000
     1.0000   1.0000   1.0000   1.0000   1.0000   1.0000   1.0000   1.0000
     1.0353   0.7395  -0.0000  -0.0000  -0.0000  -0.0000  -0.0000  -0.0000
    -0.0000  -0.0000  -0.0000  -0.0000  -0.0000  -0.0000  -0.0000  -0.0000
    -0.0000  -0.0000  -0.0000  -0.0000  -0.0000  -0.0000  -0.0000  -0.0000
    -0.0000  -0.0000  -0.0000  -0.0000  -0.0000  -0.0000  -0.0000  -0.0000
    -0.0000  -0.0000  -0.0000  -0.0000

          k = 0.4167 0.2406 0.0000 (  5401 PWs)   bands (ev):

   -51.4578 -51.4578 -27.9212 -27.9171 -27.6353 -27.6349 -27.5958 -27.5928
    -9.2089  -8.9319  -8.7176  -8.6115  -2.2904  -2.1014  -1.3718  -0.8965
    -0.4722  -0.3536   0.2392   0.4017   1.2130   1.9103   2.1526   2.1993
     2.8127   3.0541   6.1192   6.2305   6.3986   6.7064   7.1069   7.6282
     7.7909   8.2662   9.6762  10.2203  10.9882  11.0831  11.3619  11.7913
    12.2779  12.9046  13.4855  13.7865  13.8047  14.3384  14.7065  14.7619
    15.1702  15.4767  16.3211  16.6872  17.0969  17.2410  18.1117  18.2541
    18.4353  18.8860  18.9226  19.3440

     occupation numbers 
     1.0000   1.0000   1.0000   1.0000   1.0000   1.0000   1.0000   1.0000
     1.0000   1.0000   1.0000   1.0000   1.0000   1.0000   1.0000   1.0000
     1.0000   1.0000   1.0000   1.0000   1.0000   1.0000   1.0000   1.0000
     1.0354   0.7589  -0.0000  -0.0000  -0.0000  -0.0000  -0.0000  -0.0000
    -0.0000  -0.0000  -0.0000  -0.0000  -0.0000  -0.0000  -0.0000  -0.0000
    -0.0000  -0.0000  -0.0000  -0.0000  -0.0000  -0.0000  -0.0000  -0.0000
    -0.0000  -0.0000  -0.0000  -0.0000  -0.0000  -0.0000  -0.0000  -0.0000
    -0.0000  -0.0000  -0.0000  -0.0000

          k = 0.5000-0.2887 0.0000 (  5412 PWs)   bands (ev):

   -51.4549 -51.4548 -27.9473 -27.9460 -27.6287 -27.6284 -27.6026 -27.6015
    -9.0478  -8.8391  -8.6539  -8.5917  -2.3716  -2.2744  -1.5078  -1.0213
    -0.5358  -0.4192   0.1558   0.3188   1.1643   1.9722   2.1715   2.2407
     2.9401   3.1578   6.2298   6.2955   6.6938   6.7298   7.0872   7.6868
     7.8426   8.3531   9.1859  10.0329  10.7341  11.3169  11.4911  11.9964
    12.5974  12.7405  13.3658  13.4543  13.8678  14.3003  14.4497  14.7134
    14.8067  14.9807  16.2969  16.4660  17.6693  17.7745  18.0402  18.5562
    18.9745  19.3919  19.5046  19.9352

     occupation numbers 
     1.0000   1.0000   1.0000   1.0000   1.0000   1.0000   1.0000   1.0000
     1.0000   1.0000   1.0000   1.0000   1.0000   1.0000   1.0000   1.0000
     1.0000   1.0000   1.0000   1.0000   1.0000   1.0000   1.0000   1.0000
     0.9740   0.4516  -0.0000  -0.0000  -0.0000  -0.0000  -0.0000  -0.0000
    -0.0000  -0.0000  -0.0000  -0.0000  -0.0000  -0.0000  -0.0000  -0.0000
    -0.0000  -0.0000  -0.0000  -0.0000  -0.0000  -0.0000  -0.0000  -0.0000
    -0.0000  -0.0000  -0.0000  -0.0000  -0.0000  -0.0000  -0.0000  -0.0000
    -0.0000  -0.0000  -0.0000  -0.0000

          k =-0.5000-0.2887 0.0000 (  5412 PWs)   bands (ev):

   -51.4549 -51.4548 -27.9501 -27.9460 -27.6286 -27.6282 -27.6025 -27.5995
    -9.0501  -8.8351  -8.6556  -8.5934  -2.3707  -2.2770  -1.5024  -1.0177
    -0.5306  -0.4204   0.1604   0.3242   1.1570   1.9731   2.1717   2.2425
     2.9352   3.1518   6.2275   6.2932   6.6935   6.7290   7.0956   7.6918
     7.8399   8.3493   9.1859  10.0374  10.7335  11.3141  11.4944  12.0002
    12.5963  12.7427  13.3584  13.4495  13.8664  14.2946  14.4490  14.7150
    14.8083  14.9738  16.2990  16.4647  17.6672  17.7764  18.0461  18.5574
    18.9766  19.4031  19.4922  19.9285

     occupation numbers 
     1.0000   1.0000   1.0000   1.0000   1.0000   1.0000   1.0000   1.0000
     1.0000   1.0000   1.0000   1.0000   1.0000   1.0000   1.0000   1.0000
     1.0000   1.0000   1.0000   1.0000   1.0000   1.0000   1.0000   1.0000
     0.9793   0.4702  -0.0000  -0.0000  -0.0000  -0.0000  -0.0000  -0.0000
    -0.0000  -0.0000  -0.0000  -0.0000  -0.0000  -0.0000  -0.0000  -0.0000
    -0.0000  -0.0000  -0.0000  -0.0000  -0.0000  -0.0000  -0.0000  -0.0000
    -0.0000  -0.0000  -0.0000  -0.0000  -0.0000  -0.0000  -0.0000  -0.0000
    -0.0000  -0.0000  -0.0000  -0.0000

          k =-0.0833 0.1443 0.0000 (  5395 PWs)   bands (ev):

   -51.4907 -51.4907 -27.7087 -27.7082 -27.5890 -27.5855 -27.5243 -27.5210
   -10.4927 -10.0922  -9.2313  -8.8173  -2.3572  -1.3870   0.0580   0.1450
     0.4704   0.9634   1.0173   1.1220   1.3430   1.3675   2.1232   2.7755
     3.6446   3.9524   5.9799   6.0778   6.1214   6.2016   6.2146   6.5710
     6.7393   6.9765   9.2275   9.5972   9.9289  10.0979  11.3670  12.2175
    12.4400  12.7989  13.2505  13.4827  13.8571  14.2579  14.4780  14.6373
    15.0570  15.0742  15.7682  15.9741  16.4173  16.6902  17.4787  17.6042
    18.0993  18.3845  18.7610  19.0958

     occupation numbers 
     1.0000   1.0000   1.0000   1.0000   1.0000   1.0000   1.0000   1.0000
     1.0000   1.0000   1.0000   1.0000   1.0000   1.0000   1.0000   1.0000
     1.0000   1.0000   1.0000   1.0000   1.0000   1.0000   1.0000   1.0335
    -0.0127  -0.0001  -0.0000  -0.0000  -0.0000  -0.0000  -0.0000  -0.0000
    -0.0000  -0.0000  -0.0000  -0.0000  -0.0000  -0.0000  -0.0000  -0.0000
    -0.0000  -0.0000  -0.0000  -0.0000  -0.0000  -0.0000  -0.0000  -0.0000
    -0.0000  -0.0000  -0.0000  -0.0000  -0.0000  -0.0000  -0.0000  -0.0000
    -0.0000  -0.0000  -0.0000  -0.0000

          k = 0.1667 0.0000 0.0000 (  5395 PWs)   bands (ev):

   -51.4907 -51.4907 -27.7086 -27.7082 -27.5891 -27.5867 -27.5231 -27.5209
   -10.4926 -10.0921  -9.2315  -8.8175  -2.3571  -1.3869   0.0595   0.1465
     0.4680   0.9615   1.0145   1.1210   1.3503   1.3678   2.1220   2.7762
     3.6433   3.9505   5.9767   6.0829   6.1230   6.2112   6.2155   6.5660
     6.7340   6.9727   9.2276   9.5972   9.9289  10.0983  11.3674  12.2199
    12.4413  12.8001  13.2517  13.4830  13.8537  14.2585  14.4746  14.6331
    15.0583  15.0718  15.7697  15.9783  16.4168  16.6891  17.4819  17.6043
    18.0986  18.3841  18.7595  19.0976

     occupation numbers 
     1.0000   1.0000   1.0000   1.0000   1.0000   1.0000   1.0000   1.0000
     1.0000   1.0000   1.0000   1.0000   1.0000   1.0000   1.0000   1.0000
     1.0000   1.0000   1.0000   1.0000   1.0000   1.0000   1.0000   1.0336
    -0.0129  -0.0001  -0.0000  -0.0000  -0.0000  -0.0000  -0.0000  -0.0000
    -0.0000  -0.0000  -0.0000  -0.0000  -0.0000  -0.0000  -0.0000  -0.0000
    -0.0000  -0.0000  -0.0000  -0.0000  -0.0000  -0.0000  -0.0000  -0.0000
    -0.0000  -0.0000  -0.0000  -0.0000  -0.0000  -0.0000  -0.0000  -0.0000
    -0.0000  -0.0000  -0.0000  -0.0000

          k =-0.0833 0.2406 0.0000 (  5411 PWs)   bands (ev):

   -51.4812 -51.4811 -27.6875 -27.6871 -27.6834 -27.6799 -27.5500 -27.5467
   -10.1632  -9.7720  -9.0994  -8.7531  -2.0919  -1.1700  -0.4584  -0.3287
     0.0314   0.5174   0.7607   0.9684   1.2298   1.3162   2.0631   2.6932
     3.2469   3.3811   5.7882   5.9751   6.0544   6.1940   6.3072   6.8197
     7.2790   7.5122   9.7184  10.1104  10.9803  11.2758  11.7887  12.0028
    12.1953  12.8846  13.1764  13.7247  13.8309  14.4152  14.6151  14.9289
    15.0017  15.2768  15.3846  16.0747  16.2293  16.9641  17.0076  17.2178
    17.8095  17.8593  18.5091  19.3364

     occupation numbers 
     1.0000   1.0000   1.0000   1.0000   1.0000   1.0000   1.0000   1.0000
     1.0000   1.0000   1.0000   1.0000   1.0000   1.0000   1.0000   1.0000
     1.0000   1.0000   1.0000   1.0000   1.0000   1.0000   1.0000   1.0208
     0.1997  -0.0073  -0.0000  -0.0000  -0.0000  -0.0000  -0.0000  -0.0000
    -0.0000  -0.0000  -0.0000  -0.0000  -0.0000  -0.0000  -0.0000  -0.0000
    -0.0000  -0.0000  -0.0000  -0.0000  -0.0000  -0.0000  -0.0000  -0.0000
    -0.0000  -0.0000  -0.0000  -0.0000  -0.0000  -0.0000  -0.0000  -0.0000
    -0.0000  -0.0000  -0.0000  -0.0000

          k =-0.1667 0.1925 0.0000 (  5411 PWs)   bands (ev):

   -51.4812 -51.4811 -27.6874 -27.6871 -27.6828 -27.6799 -27.5500 -27.5472
   -10.1632  -9.7722  -9.0992  -8.7529  -2.0921  -1.1701  -0.4591  -0.3290
     0.0327   0.5171   0.7614   0.9644   1.2312   1.3168   2.0645   2.6912
     3.2474   3.3818   5.7883   5.9753   6.0568   6.1918   6.3076   6.8178
     7.2784   7.5140   9.7186  10.1104  10.9807  11.2764  11.7891  12.0054
    12.1944  12.8817  13.1767  13.7245  13.8281  14.4179  14.6180  14.9276
    14.9998  15.2770  15.3843  16.0754  16.2308  16.9608  17.0127  17.2121
    17.8158  17.8567  18.5061  19.3389

     occupation numbers 
     1.0000   1.0000   1.0000   1.0000   1.0000   1.0000   1.0000   1.0000
     1.0000   1.0000   1.0000   1.0000   1.0000   1.0000   1.0000   1.0000
     1.0000   1.0000   1.0000   1.0000   1.0000   1.0000   1.0000   1.0204
     0.1985  -0.0078  -0.0000  -0.0000  -0.0000  -0.0000  -0.0000  -0.0000
    -0.0000  -0.0000  -0.0000  -0.0000  -0.0000  -0.0000  -0.0000  -0.0000
    -0.0000  -0.0000  -0.0000  -0.0000  -0.0000  -0.0000  -0.0000  -0.0000
    -0.0000  -0.0000  -0.0000  -0.0000  -0.0000  -0.0000  -0.0000  -0.0000
    -0.0000  -0.0000  -0.0000  -0.0000

          k = 0.2500 0.0481 0.0000 (  5411 PWs)   bands (ev):

   -51.4811 -51.4811 -27.6874 -27.6870 -27.6841 -27.6807 -27.5492 -27.5462
   -10.1629  -9.7716  -9.0998  -8.7536  -2.0916  -1.1697  -0.4570  -0.3276
     0.0294   0.5180   0.7632   0.9691   1.2292   1.3156   2.0642   2.6938
     3.2435   3.3783   5.7890   5.9759   6.0544   6.1973   6.3123   6.8155
     7.2753   7.5107   9.7187  10.1108  10.9795  11.2761  11.7881  12.0059
    12.1958  12.8854  13.1769  13.7264  13.8305  14.4131  14.6146  14.9274
    15.0019  15.2744  15.3846  16.0750  16.2289  16.9638  17.0068  17.2165
    17.8101  17.8591  18.5097  19.3357

     occupation numbers 
     1.0000   1.0000   1.0000   1.0000   1.0000   1.0000   1.0000   1.0000
     1.0000   1.0000   1.0000   1.0000   1.0000   1.0000   1.0000   1.0000
     1.0000   1.0000   1.0000   1.0000   1.0000   1.0000   1.0000   1.0209
     0.2080  -0.0054  -0.0000  -0.0000  -0.0000  -0.0000  -0.0000  -0.0000
    -0.0000  -0.0000  -0.0000  -0.0000  -0.0000  -0.0000  -0.0000  -0.0000
    -0.0000  -0.0000  -0.0000  -0.0000  -0.0000  -0.0000  -0.0000  -0.0000
    -0.0000  -0.0000  -0.0000  -0.0000  -0.0000  -0.0000  -0.0000  -0.0000
    -0.0000  -0.0000  -0.0000  -0.0000

          k =-0.1667-0.1925 0.0000 (  5411 PWs)   bands (ev):

   -51.4811 -51.4811 -27.6874 -27.6870 -27.6841 -27.6815 -27.5484 -27.5462
   -10.1629  -9.7714  -9.1001  -8.7539  -2.0915  -1.1695  -0.4548  -0.3267
     0.0280   0.5184   0.7668   0.9675   1.2287   1.3145   2.0612   2.6966
     3.2422   3.3774   5.7906   5.9796   6.0606   6.1906   6.3081   6.8180
     7.2709   7.5122   9.7188  10.1105  10.9806  11.2762  11.7883  12.0076
    12.1948  12.8848  13.1775  13.7239  13.8298  14.4143  14.6168  14.9306
    14.9984  15.2674  15.3855  16.0779  16.2284  16.9637  17.0083  17.2100
    17.8143  17.8603  18.5066  19.3427

     occupation numbers 
     1.0000   1.0000   1.0000   1.0000   1.0000   1.0000   1.0000   1.0000
     1.0000   1.0000   1.0000   1.0000   1.0000   1.0000   1.0000   1.0000
     1.0000   1.0000   1.0000   1.0000   1.0000   1.0000   1.0000   1.0213
     0.2111  -0.0047  -0.0000  -0.0000  -0.0000  -0.0000  -0.0000  -0.0000
    -0.0000  -0.0000  -0.0000  -0.0000  -0.0000  -0.0000  -0.0000  -0.0000
    -0.0000  -0.0000  -0.0000  -0.0000  -0.0000  -0.0000  -0.0000  -0.0000
    -0.0000  -0.0000  -0.0000  -0.0000  -0.0000  -0.0000  -0.0000  -0.0000
    -0.0000  -0.0000  -0.0000  -0.0000

          k = 0.2500-0.0481 0.0000 (  5411 PWs)   bands (ev):

   -51.4812 -51.4811 -27.6874 -27.6870 -27.6824 -27.6812 -27.5487 -27.5477
   -10.1630  -9.7720  -9.0994  -8.7532  -2.0920  -1.1701  -0.4581  -0.3281
     0.0321   0.5188   0.7635   0.9620   1.2304   1.3166   2.0647   2.6925
     3.2456   3.3796   5.7901   5.9750   6.0552   6.1949   6.3107   6.8142
     7.2762   7.5141   9.7187  10.1106  10.9810  11.2769  11.7890  12.0068
    12.1951  12.8829  13.1761  13.7256  13.8284  14.4156  14.6170  14.9254
    15.0001  15.2741  15.3856  16.0764  16.2295  16.9607  17.0101  17.2139
    17.8154  17.8565  18.5083  19.3392

     occupation numbers 
     1.0000   1.0000   1.0000   1.0000   1.0000   1.0000   1.0000   1.0000
     1.0000   1.0000   1.0000   1.0000   1.0000   1.0000   1.0000   1.0000
     1.0000   1.0000   1.0000   1.0000   1.0000   1.0000   1.0000   1.0207
     0.2028  -0.0063  -0.0000  -0.0000  -0.0000  -0.0000  -0.0000  -0.0000
    -0.0000  -0.0000  -0.0000  -0.0000  -0.0000  -0.0000  -0.0000  -0.0000
    -0.0000  -0.0000  -0.0000  -0.0000  -0.0000  -0.0000  -0.0000  -0.0000
    -0.0000  -0.0000  -0.0000  -0.0000  -0.0000  -0.0000  -0.0000  -0.0000
    -0.0000  -0.0000  -0.0000  -0.0000

          k =-0.0833 0.3368 0.0000 (  5405 PWs)   bands (ev):

   -51.4701 -51.4700 -27.7902 -27.7868 -27.6627 -27.6623 -27.5796 -27.5766
    -9.7468  -9.3813  -8.9307  -8.6790  -1.9925  -1.3976  -0.7987  -0.5823
    -0.3273  -0.0480   0.3719   0.6861   1.3911   1.5692   1.8022   2.4741
     2.8654   3.0127   5.7735   5.9765   6.1826   6.4111   6.6335   7.1314
     7.7577   7.9019  10.3173  10.5637  11.0513  11.4370  11.9118  11.9950
    12.2868  12.8759  13.1491  13.8761  13.9496  14.5487  14.7050  15.0013
    15.2873  15.4262  15.7494  16.0290  16.4088  16.7161  17.3047  17.4161
    17.8404  18.2068  18.4941  18.7185

     occupation numbers 
     1.0000   1.0000   1.0000   1.0000   1.0000   1.0000   1.0000   1.0000
     1.0000   1.0000   1.0000   1.0000   1.0000   1.0000   1.0000   1.0000
     1.0000   1.0000   1.0000   1.0000   1.0000   1.0000   1.0000   1.0014
     1.0269   0.8568  -0.0000  -0.0000  -0.0000  -0.0000  -0.0000  -0.0000
    -0.0000  -0.0000  -0.0000  -0.0000  -0.0000  -0.0000  -0.0000  -0.0000
    -0.0000  -0.0000  -0.0000  -0.0000  -0.0000  -0.0000  -0.0000  -0.0000
    -0.0000  -0.0000  -0.0000  -0.0000  -0.0000  -0.0000  -0.0000  -0.0000
    -0.0000  -0.0000  -0.0000  -0.0000

          k =-0.2500 0.2406 0.0000 (  5405 PWs)   bands (ev):

   -51.4701 -51.4700 -27.7894 -27.7868 -27.6627 -27.6623 -27.5797 -27.5774
    -9.7467  -9.3819  -8.9302  -8.6787  -1.9931  -1.3971  -0.8026  -0.5805
    -0.3254  -0.0491   0.3697   0.6832   1.3933   1.5696   1.8056   2.4694
     2.8655   3.0163   5.7731   5.9772   6.1823   6.4111   6.6342   7.1275
     7.7568   7.9048  10.3180  10.5630  11.0521  11.4402  11.9130  11.9961
    12.2896  12.8692  13.1507  13.8775  13.9436  14.5497  14.7048  15.0008
    15.2878  15.4270  15.7495  16.0309  16.4058  16.7215  17.3035  17.4164
    17.8402  18.2022  18.4962  18.7186

     occupation numbers 
     1.0000   1.0000   1.0000   1.0000   1.0000   1.0000   1.0000   1.0000
     1.0000   1.0000   1.0000   1.0000   1.0000   1.0000   1.0000   1.0000
     1.0000   1.0000   1.0000   1.0000   1.0000   1.0000   1.0000   1.0013
     1.0268   0.8489  -0.0000  -0.0000  -0.0000  -0.0000  -0.0000  -0.0000
    -0.0000  -0.0000  -0.0000  -0.0000  -0.0000  -0.0000  -0.0000  -0.0000
    -0.0000  -0.0000  -0.0000  -0.0000  -0.0000  -0.0000  -0.0000  -0.0000
    -0.0000  -0.0000  -0.0000  -0.0000  -0.0000  -0.0000  -0.0000  -0.0000
    -0.0000  -0.0000  -0.0000  -0.0000

          k = 0.3333 0.0962 0.0000 (  5405 PWs)   bands (ev):

   -51.4700 -51.4700 -27.7912 -27.7873 -27.6626 -27.6623 -27.5791 -27.5759
    -9.7464  -9.3807  -8.9315  -8.6800  -1.9922  -1.3973  -0.7987  -0.5811
    -0.3257  -0.0463   0.3734   0.6862   1.3913   1.5695   1.8037   2.4725
     2.8608   3.0107   5.7750   5.9769   6.1805   6.4135   6.6362   7.1287
     7.7573   7.9025  10.3175  10.5637  11.0512  11.4359  11.9127  11.9941
    12.2874  12.8759  13.1524  13.8767  13.9492  14.5479  14.7043  15.0019
    15.2874  15.4264  15.7474  16.0270  16.4079  16.7143  17.3027  17.4136
    17.8399  18.2071  18.4950  18.7197

     occupation numbers 
     1.0000   1.0000   1.0000   1.0000   1.0000   1.0000   1.0000   1.0000
     1.0000   1.0000   1.0000   1.0000   1.0000   1.0000   1.0000   1.0000
     1.0000   1.0000   1.0000   1.0000   1.0000   1.0000   1.0000   1.0014
     1.0283   0.8608  -0.0000  -0.0000  -0.0000  -0.0000  -0.0000  -0.0000
    -0.0000  -0.0000  -0.0000  -0.0000  -0.0000  -0.0000  -0.0000  -0.0000
    -0.0000  -0.0000  -0.0000  -0.0000  -0.0000  -0.0000  -0.0000  -0.0000
    -0.0000  -0.0000  -0.0000  -0.0000  -0.0000  -0.0000  -0.0000  -0.0000
    -0.0000  -0.0000  -0.0000  -0.0000

          k =-0.2500-0.2406 0.0000 (  5405 PWs)   bands (ev):

   -51.4700 -51.4700 -27.7912 -27.7879 -27.6626 -27.6623 -27.5786 -27.5759
    -9.7465  -9.3804  -8.9317  -8.6802  -1.9921  -1.3968  -0.7976  -0.5796
    -0.3247  -0.0461   0.3722   0.6845   1.3921   1.5688   1.8034   2.4747
     2.8602   3.0085   5.7763   5.9791   6.1823   6.4079   6.6343   7.1284
     7.7557   7.9069  10.3181  10.5634  11.0527  11.4348  11.9127  11.9943
    12.2865  12.8786  13.1516  13.8780  13.9462  14.5474  14.7004  15.0025
    15.2838  15.4299  15.7491  16.0263  16.4072  16.7170  17.3042  17.4111
    17.8387  18.2023  18.4972  18.7193

     occupation numbers 
     1.0000   1.0000   1.0000   1.0000   1.0000   1.0000   1.0000   1.0000
     1.0000   1.0000   1.0000   1.0000   1.0000   1.0000   1.0000   1.0000
     1.0000   1.0000   1.0000   1.0000   1.0000   1.0000   1.0000   1.0014
     1.0285   0.8654  -0.0000  -0.0000  -0.0000  -0.0000  -0.0000  -0.0000
    -0.0000  -0.0000  -0.0000  -0.0000  -0.0000  -0.0000  -0.0000  -0.0000
    -0.0000  -0.0000  -0.0000  -0.0000  -0.0000  -0.0000  -0.0000  -0.0000
    -0.0000  -0.0000  -0.0000  -0.0000  -0.0000  -0.0000  -0.0000  -0.0000
    -0.0000  -0.0000  -0.0000  -0.0000

          k = 0.3333-0.0962 0.0000 (  5405 PWs)   bands (ev):

   -51.4701 -51.4700 -27.7885 -27.7882 -27.6626 -27.6624 -27.5783 -27.5782
    -9.7465  -9.3817  -8.9305  -8.6790  -1.9929  -1.3969  -0.8017  -0.5802
    -0.3248  -0.0466   0.3691   0.6802   1.3934   1.5711   1.8057   2.4706
     2.8635   3.0148   5.7754   5.9772   6.1787   6.4119   6.6338   7.1245
     7.7578   7.9084  10.3180  10.5629  11.0532  11.4404  11.9129  11.9955
    12.2901  12.8699  13.1523  13.8771  13.9435  14.5473  14.7032  15.0012
    15.2882  15.4296  15.7465  16.0285  16.4045  16.7211  17.3025  17.4160
    17.8415  18.2022  18.4968  18.7199

     occupation numbers 
     1.0000   1.0000   1.0000   1.0000   1.0000   1.0000   1.0000   1.0000
     1.0000   1.0000   1.0000   1.0000   1.0000   1.0000   1.0000   1.0000
     1.0000   1.0000   1.0000   1.0000   1.0000   1.0000   1.0000   1.0013
     1.0275   0.8522  -0.0000  -0.0000  -0.0000  -0.0000  -0.0000  -0.0000
    -0.0000  -0.0000  -0.0000  -0.0000  -0.0000  -0.0000  -0.0000  -0.0000
    -0.0000  -0.0000  -0.0000  -0.0000  -0.0000  -0.0000  -0.0000  -0.0000
    -0.0000  -0.0000  -0.0000  -0.0000  -0.0000  -0.0000  -0.0000  -0.0000
    -0.0000  -0.0000  -0.0000  -0.0000

          k =-0.0833 0.4330 0.0000 (  5419 PWs)   bands (ev):

   -51.4605 -51.4604 -27.8810 -27.8778 -27.6412 -27.6408 -27.6052 -27.6026
    -9.3379  -9.0262  -8.7630  -8.6190  -2.1355  -1.8444  -1.2255  -0.8560
    -0.4150  -0.3154   0.2065   0.4945   1.3751   1.5830   1.7463   2.2673
     2.8384   3.0270   5.9941   6.1514   6.4025   6.5909   7.0414   7.3795
     7.9370   8.1035  10.2497  10.5879  10.9517  11.5430  11.5841  11.7136
    12.2171  13.0220  13.4133  13.5647  13.9180  14.4722  14.8316  14.9577
    15.3863  15.6622  16.2480  16.4255  16.7923  17.0204  17.2545  17.6180
    18.0029  18.3733  18.8442  19.0804

     occupation numbers 
     1.0000   1.0000   1.0000   1.0000   1.0000   1.0000   1.0000   1.0000
     1.0000   1.0000   1.0000   1.0000   1.0000   1.0000   1.0000   1.0000
     1.0000   1.0000   1.0000   1.0000   1.0000   1.0000   1.0000   1.0000
     1.0334   0.8252  -0.0000  -0.0000  -0.0000  -0.0000  -0.0000  -0.0000
    -0.0000  -0.0000  -0.0000  -0.0000  -0.0000  -0.0000  -0.0000  -0.0000
    -0.0000  -0.0000  -0.0000  -0.0000  -0.0000  -0.0000  -0.0000  -0.0000
    -0.0000  -0.0000  -0.0000  -0.0000  -0.0000  -0.0000  -0.0000  -0.0000
    -0.0000  -0.0000  -0.0000  -0.0000

          k =-0.3333 0.2887 0.0000 (  5419 PWs)   bands (ev):

   -51.4605 -51.4604 -27.8799 -27.8778 -27.6412 -27.6409 -27.6052 -27.6034
    -9.3371  -9.0274  -8.7623  -8.6186  -2.1361  -1.8438  -1.2289  -0.8555
    -0.4154  -0.3162   0.2037   0.4925   1.3797   1.5849   1.7468   2.2630
     2.8382   3.0310   5.9934   6.1530   6.4012   6.5921   7.0392   7.3751
     7.9401   8.1037  10.2515  10.5881  10.9523  11.5455  11.5849  11.7111
    12.2192  13.0223  13.4102  13.5656  13.9139  14.4718  14.8380  14.9578
    15.3870  15.6623  16.2519  16.4239  16.7899  17.0208  17.2526  17.6185
    18.0053  18.3708  18.8439  19.0816

     occupation numbers 
     1.0000   1.0000   1.0000   1.0000   1.0000   1.0000   1.0000   1.0000
     1.0000   1.0000   1.0000   1.0000   1.0000   1.0000   1.0000   1.0000
     1.0000   1.0000   1.0000   1.0000   1.0000   1.0000   1.0000   1.0000
     1.0334   0.8160  -0.0000  -0.0000  -0.0000  -0.0000  -0.0000  -0.0000
    -0.0000  -0.0000  -0.0000  -0.0000  -0.0000  -0.0000  -0.0000  -0.0000
    -0.0000  -0.0000  -0.0000  -0.0000  -0.0000  -0.0000  -0.0000  -0.0000
    -0.0000  -0.0000  -0.0000  -0.0000  -0.0000  -0.0000  -0.0000  -0.0000
    -0.0000  -0.0000  -0.0000  -0.0000

          k = 0.4167 0.1443 0.0000 (  5419 PWs)   bands (ev):

   -51.4604 -51.4604 -27.8822 -27.8781 -27.6411 -27.6408 -27.6049 -27.6017
    -9.3373  -9.0254  -8.7640  -8.6203  -2.1355  -1.8447  -1.2246  -0.8537
    -0.4133  -0.3137   0.2077   0.4951   1.3765   1.5836   1.7461   2.2644
     2.8342   3.0257   5.9946   6.1508   6.4004   6.5921   7.0427   7.3778
     7.9416   8.1035  10.2506  10.5875  10.9514  11.5448  11.5840  11.7118
    12.2175  13.0241  13.4121  13.5636  13.9163  14.4731  14.8309  14.9554
    15.3862  15.6639  16.2465  16.4263  16.7929  17.0159  17.2528  17.6185
    18.0002  18.3721  18.8419  19.0827

     occupation numbers 
     1.0000   1.0000   1.0000   1.0000   1.0000   1.0000   1.0000   1.0000
     1.0000   1.0000   1.0000   1.0000   1.0000   1.0000   1.0000   1.0000
     1.0000   1.0000   1.0000   1.0000   1.0000   1.0000   1.0000   1.0000
     1.0340   0.8282  -0.0000  -0.0000  -0.0000  -0.0000  -0.0000  -0.0000
[...]
    -8.9566  -8.7670  -8.5464  -8.5251  -2.0352  -1.9740  -1.5846  -1.4253
    -0.4717  -0.4314   0.1763   0.5464   0.7358   1.1623   1.3369   1.9412
     3.2483   3.4231   5.9560   6.0236   6.8666   7.0405   7.4278   7.5183
     7.7559   8.2540   9.5963  10.7084  11.4222  12.0366  12.3500  12.4432
    12.4538  12.9701  13.0199  13.4644  13.7992  14.4925  14.5433  14.9879
    15.2712  15.5052  16.2774  16.7300  16.8327  17.0124  17.1856  17.3339
    17.5993  18.3084  18.6697  19.0348

     occupation numbers 
     1.0000   1.0000   1.0000   1.0000   1.0000   1.0000   1.0000   1.0000
     1.0000   1.0000   1.0000   1.0000   1.0000   1.0000   1.0000   1.0000
     1.0000   1.0000   1.0000   1.0000   1.0000   1.0000   1.0000   1.0000
     0.1890  -0.0291  -0.0000  -0.0000  -0.0000  -0.0000  -0.0000  -0.0000
    -0.0000  -0.0000  -0.0000  -0.0000  -0.0000  -0.0000  -0.0000  -0.0000
    -0.0000  -0.0000  -0.0000  -0.0000  -0.0000  -0.0000  -0.0000  -0.0000
    -0.0000  -0.0000  -0.0000  -0.0000  -0.0000  -0.0000  -0.0000  -0.0000
    -0.0000  -0.0000  -0.0000  -0.0000

          k = 0.5833 0.1443 0.0000 (  5414 PWs)   bands (ev):

   -51.4627 -51.4627 -27.9177 -27.9174 -27.6788 -27.6786 -27.6301 -27.6299
    -8.9583  -8.7658  -8.5464  -8.5247  -2.0357  -1.9728  -1.5845  -1.4253
    -0.4745  -0.4293   0.1758   0.5450   0.7359   1.1624   1.3365   1.9432
     3.2488   3.4229   5.9563   6.0235   6.8667   7.0411   7.4263   7.5187
     7.7573   8.2526   9.5930  10.7098  11.4216  12.0365  12.3494  12.4440
    12.4544  12.9696  13.0206  13.4655  13.7988  14.4911  14.5424  14.9893
    15.2741  15.5064  16.2765  16.7287  16.8313  17.0101  17.1864  17.3362
    17.5995  18.3087  18.6689  19.0350

     occupation numbers 
     1.0000   1.0000   1.0000   1.0000   1.0000   1.0000   1.0000   1.0000
     1.0000   1.0000   1.0000   1.0000   1.0000   1.0000   1.0000   1.0000
     1.0000   1.0000   1.0000   1.0000   1.0000   1.0000   1.0000   1.0000
     0.1877  -0.0290  -0.0000  -0.0000  -0.0000  -0.0000  -0.0000  -0.0000
    -0.0000  -0.0000  -0.0000  -0.0000  -0.0000  -0.0000  -0.0000  -0.0000
    -0.0000  -0.0000  -0.0000  -0.0000  -0.0000  -0.0000  -0.0000  -0.0000
    -0.0000  -0.0000  -0.0000  -0.0000  -0.0000  -0.0000  -0.0000  -0.0000
    -0.0000  -0.0000  -0.0000  -0.0000

          k =-0.2500 0.4330 0.0000 (  5388 PWs)   bands (ev):

   -51.4653 -51.4653 -27.8728 -27.8726 -27.6937 -27.6934 -27.6359 -27.6357
    -9.1096  -8.8235  -8.6057  -8.5547  -1.9277  -1.6109  -1.3868  -1.3395
    -0.4366  -0.1556   0.0295   0.5444   0.5618   0.6338   1.6667   1.9727
     3.1313   3.1953   5.8423   6.1209   6.6654   6.8045   7.0017   7.3715
     8.2758   8.3686  10.5938  10.7073  11.5148  11.5160  12.0188  12.4672
    12.8217  13.2185  13.5727  14.0109  14.1896  14.2170  14.9569  15.1571
    15.2421  15.5801  15.6977  15.7583  15.8760  16.8090  16.9738  17.3241
    17.6200  18.0106  18.0881  18.7050

     occupation numbers 
     1.0000   1.0000   1.0000   1.0000   1.0000   1.0000   1.0000   1.0000
     1.0000   1.0000   1.0000   1.0000   1.0000   1.0000   1.0000   1.0000
     1.0000   1.0000   1.0000   1.0000   1.0000   1.0000   1.0000   1.0000
     0.5244   0.3294  -0.0000  -0.0000  -0.0000  -0.0000  -0.0000  -0.0000
    -0.0000  -0.0000  -0.0000  -0.0000  -0.0000  -0.0000  -0.0000  -0.0000
    -0.0000  -0.0000  -0.0000  -0.0000  -0.0000  -0.0000  -0.0000  -0.0000
    -0.0000  -0.0000  -0.0000  -0.0000  -0.0000  -0.0000  -0.0000  -0.0000
    -0.0000  -0.0000  -0.0000  -0.0000

          k = 0.5000 0.0000 0.0000 (  5388 PWs)   bands (ev):

   -51.4653 -51.4653 -27.8727 -27.8725 -27.6937 -27.6935 -27.6359 -27.6357
    -9.1096  -8.8235  -8.6057  -8.5546  -1.9278  -1.6109  -1.3870  -1.3398
    -0.4369  -0.1552   0.0301   0.5446   0.5617   0.6332   1.6661   1.9733
     3.1312   3.1955   5.8423   6.1210   6.6660   6.8040   7.0016   7.3721
     8.2754   8.3685  10.5940  10.7075  11.5141  11.5155  12.0182  12.4672
    12.8225  13.2188  13.5729  14.0100  14.1897  14.2168  14.9582  15.1567
    15.2419  15.5813  15.6972  15.7571  15.8764  16.8096  16.9738  17.3235
    17.6206  18.0114  18.0890  18.7046

     occupation numbers 
     1.0000   1.0000   1.0000   1.0000   1.0000   1.0000   1.0000   1.0000
     1.0000   1.0000   1.0000   1.0000   1.0000   1.0000   1.0000   1.0000
     1.0000   1.0000   1.0000   1.0000   1.0000   1.0000   1.0000   1.0000
     0.5248   0.3289  -0.0000  -0.0000  -0.0000  -0.0000  -0.0000  -0.0000
    -0.0000  -0.0000  -0.0000  -0.0000  -0.0000  -0.0000  -0.0000  -0.0000
    -0.0000  -0.0000  -0.0000  -0.0000  -0.0000  -0.0000  -0.0000  -0.0000
    -0.0000  -0.0000  -0.0000  -0.0000  -0.0000  -0.0000  -0.0000  -0.0000
    -0.0000  -0.0000  -0.0000  -0.0000

          k =-0.2500 0.5292 0.0000 (  5370 PWs)   bands (ev):

   -51.4612 -51.4612 -27.8790 -27.8787 -27.7371 -27.7369 -27.6268 -27.6266
    -8.8865  -8.7288  -8.5015  -8.4917  -1.9060  -1.8134  -1.5348  -1.3672
    -0.5593  -0.2069  -0.0950   0.2710   0.4267   0.7458   1.4063   1.6997
     3.4631   3.5287   5.6509   5.7100   6.8940   6.9657   7.3490   7.6435
     8.3319   8.5170  10.0586  10.6872  11.1458  11.8348  12.1314  13.0799
    13.2636  13.4027  13.5944  14.1227  14.3485  14.6095  14.8160  15.1808
    15.2598  15.6707  15.9239  16.0588  16.1965  16.4231  16.8452  16.9094
    17.2654  17.6320  17.8836  18.7027

     occupation numbers 
     1.0000   1.0000   1.0000   1.0000   1.0000   1.0000   1.0000   1.0000
     1.0000   1.0000   1.0000   1.0000   1.0000   1.0000   1.0000   1.0000
     1.0000   1.0000   1.0000   1.0000   1.0000   1.0000   1.0000   1.0000
    -0.0353  -0.0306  -0.0000  -0.0000  -0.0000  -0.0000  -0.0000  -0.0000
    -0.0000  -0.0000  -0.0000  -0.0000  -0.0000  -0.0000  -0.0000  -0.0000
    -0.0000  -0.0000  -0.0000  -0.0000  -0.0000  -0.0000  -0.0000  -0.0000
    -0.0000  -0.0000  -0.0000  -0.0000  -0.0000  -0.0000  -0.0000  -0.0000
    -0.0000  -0.0000  -0.0000  -0.0000

          k =-0.3333 0.4811 0.0000 (  5370 PWs)   bands (ev):

   -51.4612 -51.4612 -27.8789 -27.8787 -27.7371 -27.7369 -27.6268 -27.6266
    -8.8858  -8.7293  -8.5015  -8.4918  -1.9056  -1.8141  -1.5347  -1.3677
    -0.5580  -0.2087  -0.0935   0.2707   0.4269   0.7463   1.4070   1.6982
     3.4627   3.5291   5.6507   5.7102   6.8936   6.9663   7.3487   7.6439
     8.3300   8.5184  10.0621  10.6854  11.1455  11.8344  12.1311  13.0803
    13.2623  13.4019  13.5960  14.1232  14.3490  14.6081  14.8159  15.1812
    15.2600  15.6702  15.9243  16.0592  16.1965  16.4235  16.8436  16.9111
    17.2642  17.6317  17.8858  18.7021

     occupation numbers 
     1.0000   1.0000   1.0000   1.0000   1.0000   1.0000   1.0000   1.0000
     1.0000   1.0000   1.0000   1.0000   1.0000   1.0000   1.0000   1.0000
     1.0000   1.0000   1.0000   1.0000   1.0000   1.0000   1.0000   1.0000
    -0.0352  -0.0305  -0.0000  -0.0000  -0.0000  -0.0000  -0.0000  -0.0000
    -0.0000  -0.0000  -0.0000  -0.0000  -0.0000  -0.0000  -0.0000  -0.0000
    -0.0000  -0.0000  -0.0000  -0.0000  -0.0000  -0.0000  -0.0000  -0.0000
    -0.0000  -0.0000  -0.0000  -0.0000  -0.0000  -0.0000  -0.0000  -0.0000
    -0.0000  -0.0000  -0.0000  -0.0000

          k = 0.5833 0.0481 0.0000 (  5370 PWs)   bands (ev):

   -51.4612 -51.4612 -27.8789 -27.8787 -27.7371 -27.7369 -27.6268 -27.6266
    -8.8866  -8.7286  -8.5015  -8.4917  -1.9061  -1.8134  -1.5351  -1.3672
    -0.5594  -0.2067  -0.0947   0.2712   0.4266   0.7452   1.4063   1.6998
     3.4630   3.5288   5.6509   5.7102   6.8948   6.9650   7.3485   7.6444
     8.3316   8.5170  10.0588  10.6875  11.1450  11.8344  12.1308  13.0802
    13.2634  13.4038  13.5944  14.1224  14.3489  14.6089  14.8161  15.1815
    15.2602  15.6701  15.9246  16.0593  16.1968  16.4224  16.8451  16.9094
    17.2659  17.6303  17.8848  18.7028

     occupation numbers 
     1.0000   1.0000   1.0000   1.0000   1.0000   1.0000   1.0000   1.0000
     1.0000   1.0000   1.0000   1.0000   1.0000   1.0000   1.0000   1.0000
     1.0000   1.0000   1.0000   1.0000   1.0000   1.0000   1.0000   1.0000
    -0.0353  -0.0305  -0.0000  -0.0000  -0.0000  -0.0000  -0.0000  -0.0000
    -0.0000  -0.0000  -0.0000  -0.0000  -0.0000  -0.0000  -0.0000  -0.0000
    -0.0000  -0.0000  -0.0000  -0.0000  -0.0000  -0.0000  -0.0000  -0.0000
    -0.0000  -0.0000  -0.0000  -0.0000  -0.0000  -0.0000  -0.0000  -0.0000
    -0.0000  -0.0000  -0.0000  -0.0000

          k =-0.3333-0.4811 0.0000 (  5370 PWs)   bands (ev):

   -51.4612 -51.4612 -27.8789 -27.8787 -27.7371 -27.7369 -27.6268 -27.6266
    -8.8871  -8.7282  -8.5015  -8.4916  -1.9058  -1.8135  -1.5345  -1.3674
    -0.5607  -0.2066  -0.0943   0.2710   0.4266   0.7454   1.4058   1.7006
     3.4630   3.5288   5.6510   5.7101   6.8935   6.9665   7.3497   7.6430
     8.3312   8.5173  10.0584  10.6847  11.1478  11.8354  12.1297  13.0801
    13.2633  13.4022  13.5956  14.1245  14.3481  14.6079  14.8163  15.1824
    15.2592  15.6714  15.9234  16.0589  16.1968  16.4231  16.8447  16.9098
    17.2643  17.6312  17.8854  18.7030

     occupation numbers 
     1.0000   1.0000   1.0000   1.0000   1.0000   1.0000   1.0000   1.0000
     1.0000   1.0000   1.0000   1.0000   1.0000   1.0000   1.0000   1.0000
     1.0000   1.0000   1.0000   1.0000   1.0000   1.0000   1.0000   1.0000
    -0.0353  -0.0305  -0.0000  -0.0000  -0.0000  -0.0000  -0.0000  -0.0000
    -0.0000  -0.0000  -0.0000  -0.0000  -0.0000  -0.0000  -0.0000  -0.0000
    -0.0000  -0.0000  -0.0000  -0.0000  -0.0000  -0.0000  -0.0000  -0.0000
    -0.0000  -0.0000  -0.0000  -0.0000  -0.0000  -0.0000  -0.0000  -0.0000
    -0.0000  -0.0000  -0.0000  -0.0000

          k = 0.5833-0.0481 0.0000 (  5370 PWs)   bands (ev):

   -51.4612 -51.4612 -27.8788 -27.8788 -27.7370 -27.7370 -27.6268 -27.6266
    -8.8858  -8.7293  -8.5015  -8.4918  -1.9057  -1.8141  -1.5349  -1.3677
    -0.5578  -0.2086  -0.0937   0.2710   0.4267   0.7461   1.4065   1.6987
     3.4627   3.5291   5.6508   5.7103   6.8948   6.9651   7.3483   7.6444
     8.3300   8.5184  10.0622  10.6855  11.1452  11.8341  12.1306  13.0809
    13.2623  13.4028  13.5953  14.1225  14.3495  14.6081  14.8158  15.1808
    15.2602  15.6707  15.9244  16.0590  16.1970  16.4231  16.8439  16.9104
    17.2649  17.6306  17.8864  18.7024

     occupation numbers 
     1.0000   1.0000   1.0000   1.0000   1.0000   1.0000   1.0000   1.0000
     1.0000   1.0000   1.0000   1.0000   1.0000   1.0000   1.0000   1.0000
     1.0000   1.0000   1.0000   1.0000   1.0000   1.0000   1.0000   1.0000
    -0.0352  -0.0305  -0.0000  -0.0000  -0.0000  -0.0000  -0.0000  -0.0000
    -0.0000  -0.0000  -0.0000  -0.0000  -0.0000  -0.0000  -0.0000  -0.0000
    -0.0000  -0.0000  -0.0000  -0.0000  -0.0000  -0.0000  -0.0000  -0.0000
    -0.0000  -0.0000  -0.0000  -0.0000  -0.0000  -0.0000  -0.0000  -0.0000
    -0.0000  -0.0000  -0.0000  -0.0000

     the Fermi energy is     3.1392 ev

!    total energy              =    -907.91988481 Ry

     total all-electron energy =    -18448.328907 Ry
     estimated scf accuracy    <          6.7E-11 Ry
     smearing contrib. (-TS)   =      -0.00146018 Ry
     internal energy E=F+TS    =    -907.91842463 Ry

     The total energy is F=E-TS. E is the sum of the following terms:
     one-electron contribution =   -1381.80356186 Ry
     hartree contribution      =     704.23373569 Ry
     xc contribution           =     -65.42086375 Ry
     ewald contribution        =     423.33047969 Ry
     one-center paw contrib.   =    -588.25821441 Ry
      -> PAW hartree energy AE =     101.18318822 Ry
      -> PAW hartree energy PS =    -100.66881581 Ry
      -> PAW xc energy AE      =    -324.84136910 Ry
      -> PAW xc energy PS      =      30.19788961 Ry
      -> total E_H with PAW    =     704.74810810 Ry
      -> total E_XC with PAW   =    -360.06434324 Ry

     convergence has been achieved in   9 iterations

     negative rho (up, down):  1.850E-04 0.000E+00

     Forces acting on atoms (cartesian axes, Ry/au):

     atom    1 type  2   force =    -0.00020193    0.00020790   -0.00057627
     atom    2 type  1   force =     0.00006228    0.00010400   -0.00078336
     atom    3 type  2   force =     0.00011091   -0.00030011   -0.00023095
     atom    4 type  2   force =    -0.00006705   -0.00006044    0.00057870
     atom    5 type  1   force =     0.00018219    0.00011034    0.00078322
     atom    6 type  2   force =    -0.00008641   -0.00006169    0.00022866
     The non-local contrib.  to forces
     atom    1 type  2   force =    -0.00042083    0.00054007   -0.02833747
     atom    2 type  1   force =    -0.00001998    0.00000714   -0.01243739
     atom    3 type  2   force =     0.00024709   -0.00068141    0.10870339
     atom    4 type  2   force =    -0.00018465   -0.00018413    0.02834009
     atom    5 type  1   force =    -0.00002709   -0.00003042    0.01243537
     atom    6 type  2   force =    -0.00018447   -0.00011586   -0.10871118
     The ionic contribution  to forces
     atom    1 type  2   force =    -0.00238467    0.00255033   -1.41243067
     atom    2 type  1   force =     0.00077663    0.00072589  -53.04135380
     atom    3 type  2   force =     0.00115712   -0.00308764  -47.37671916
     atom    4 type  2   force =    -0.00035753   -0.00087765    1.41246067
     atom    5 type  1   force =     0.00161115    0.00122524   53.04135984
     atom    6 type  2   force =    -0.00080270   -0.00053616   47.37668312
     The local contribution  to forces
     atom    1 type  2   force =     0.00257965   -0.00285155    1.44616194
     atom    2 type  1   force =    -0.00069588   -0.00063044   53.05185818
     atom    3 type  2   force =    -0.00127934    0.00342945   47.26567745
     atom    4 type  2   force =     0.00046442    0.00099078   -1.44619023
     atom    5 type  1   force =    -0.00140569   -0.00108760  -53.05189766
     atom    6 type  2   force =     0.00088961    0.00058338  -47.26563862
     The core correction contribution to forces
     atom    1 type  2   force =     0.00002455   -0.00003145   -0.00597241
     atom    2 type  1   force =     0.00000205    0.00000238    0.00112553
     atom    3 type  2   force =    -0.00001394    0.00003996    0.00210890
     atom    4 type  2   force =     0.00001065    0.00001067    0.00597218
     atom    5 type  1   force =     0.00000530    0.00000387   -0.00112573
     atom    6 type  2   force =     0.00001116    0.00000698   -0.00210850
     The Hubbard contrib.    to forces
     atom    1 type  2   force =     0.00000000    0.00000000    0.00000000
     atom    2 type  1   force =     0.00000000    0.00000000    0.00000000
     atom    3 type  2   force =     0.00000000    0.00000000    0.00000000
     atom    4 type  2   force =     0.00000000    0.00000000    0.00000000
     atom    5 type  1   force =     0.00000000    0.00000000    0.00000000
     atom    6 type  2   force =     0.00000000    0.00000000    0.00000000
     The SCF correction term to forces
     atom    1 type  2   force =    -0.00000024    0.00000072    0.00000125
     atom    2 type  1   force =    -0.00000015   -0.00000074    0.00002303
     atom    3 type  2   force =     0.00000037   -0.00000024   -0.00000263
     atom    4 type  2   force =     0.00000046    0.00000013   -0.00000511
     atom    5 type  1   force =    -0.00000108   -0.00000050    0.00001032
     atom    6 type  2   force =     0.00000039    0.00000020    0.00000274

     Total force =     0.001505     Total SCF correction =     0.000026

     bfgs converged in   5 scf cycles and   4 bfgs steps
     (criteria: energy <  1.0E-04 Ry, force <  1.0E-03 Ry/Bohr)

     End of BFGS Geometry Optimization

     Final energy   =    -907.9198848072 Ry

     File ./tmp/NbS2_bi.bfgs deleted, as requested
Begin final coordinates

ATOMIC_POSITIONS (crystal)
S             0.3326973167        0.6656348881        0.2239672808
Nb           -0.0007055126       -0.0006787529        0.1470646971
S             0.3327054920        0.6664579313        0.0691259142
S             0.6654251648        0.3327150851        0.3522139285
Nb           -0.0013810257       -0.0007143089        0.4291166046
S             0.6654219118        0.3326940545        0.5070557444
End final coordinates



     Writing output data file ./tmp/NbS2_bi.save/

     init_run     :     20.69s CPU     21.07s WALL (       1 calls)
     electrons    :   3142.23s CPU   3175.75s WALL (       5 calls)
     update_pot   :      3.90s CPU      3.92s WALL (       4 calls)
     forces       :     45.10s CPU     45.68s WALL (       5 calls)

     Called by init_run:
     wfcinit      :     19.23s CPU     19.47s WALL (       1 calls)
     wfcinit:atom :      0.09s CPU      0.10s WALL (      74 calls)
     wfcinit:wfcr :     18.71s CPU     18.94s WALL (      74 calls)
     potinit      :      0.33s CPU      0.34s WALL (       1 calls)
     hinit0       :      0.63s CPU      0.63s WALL (       1 calls)

     Called by electrons:
     c_bands      :   2737.90s CPU   2756.72s WALL (      50 calls)
     sum_band     :    378.06s CPU    388.24s WALL (      50 calls)
     v_of_rho     :      1.71s CPU      1.74s WALL (      51 calls)
     v_h          :      0.95s CPU      0.98s WALL (      51 calls)
     v_xc         :      0.83s CPU      0.84s WALL (      56 calls)
     newd         :     21.38s CPU     26.18s WALL (      51 calls)
     PAW_pot      :      3.30s CPU      3.31s WALL (      55 calls)
     mix_rho      :      1.60s CPU      1.65s WALL (      50 calls)

     Called by c_bands:
     init_us_2    :     12.53s CPU     12.63s WALL (    8140 calls)
     cegterg      :   2704.03s CPU   2722.66s WALL (    3700 calls)

     Called by sum_band:
     sum_band:wei :      0.27s CPU      0.27s WALL (      50 calls)
     sum_band:loo :    347.25s CPU    351.31s WALL (      50 calls)
     sum_band:buf :      4.85s CPU      4.88s WALL (    3700 calls)
     sum_band:ini :      5.41s CPU      5.43s WALL (    3700 calls)
     sum_band:cal :     94.99s CPU     95.26s WALL (    3996 calls)
     sum_band:bec :      0.48s CPU      0.49s WALL (    3996 calls)
     addusdens    :     29.55s CPU     35.64s WALL (      50 calls)
     addusd:skk   :      0.14s CPU      0.17s WALL (     100 calls)
     addusd:dgemm :     11.30s CPU     16.39s WALL (     100 calls)
     addusd:qvan2 :     16.46s CPU     16.48s WALL (     100 calls)

     Called by *egterg:
     cdiaghg      :     70.47s CPU     70.56s WALL (   11972 calls)
     cegterg:over :    329.37s CPU    329.96s WALL (    8864 calls)
     cegterg:upda :    165.21s CPU    165.37s WALL (    8864 calls)
     cegterg:last :    467.38s CPU    467.69s WALL (    6148 calls)
     h_psi        :   1339.15s CPU   1356.34s WALL (   12638 calls)
     s_psi        :    173.66s CPU    173.95s WALL (   12638 calls)
     g_psi        :      3.60s CPU      3.62s WALL (    8864 calls)

     Called by h_psi:
     h_psi:calbec :    197.28s CPU    197.93s WALL (   12638 calls)
     vloc_psi     :    966.53s CPU    982.86s WALL (   12638 calls)
     add_vuspsi   :    165.00s CPU    165.18s WALL (   12638 calls)

     General routines
     calbec       :    328.31s CPU    329.30s WALL (   18114 calls)
     fft          :      4.83s CPU      4.98s WALL (     324 calls)
     ffts         :      0.18s CPU      0.19s WALL (     101 calls)
     fftw         :   1071.60s CPU   1089.52s WALL ( 1218030 calls)
     interpolate  :      0.88s CPU      0.90s WALL (      51 calls)

     Parallel routines
     fft_scatt_xy :    117.32s CPU    119.12s WALL ( 1218455 calls)
     fft_scatt_yz :    109.70s CPU    111.77s WALL ( 1218455 calls)

     PAW routines
     PAW_pot      :      3.30s CPU      3.31s WALL (      55 calls)

     PWSCF        :  53m43.22s CPU  54m18.54s WALL


   This run was terminated on:   1:34:59  15Jun2021            

=------------------------------------------------------------------------------=
   JOB DONE.
=------------------------------------------------------------------------------=
