
     Program PROJWFC v.6.6 starts on 12Jun2021 at 23:33:26 

     This program is part of the open-source Quantum ESPRESSO suite
     for quantum simulation of materials; please cite
         "P. Giannozzi et al., J. Phys.:Condens. Matter 21 395502 (2009);
         "P. Giannozzi et al., J. Phys.:Condens. Matter 29 465901 (2017);
          URL http://www.quantum-espresso.org", 
     in publications or presentations arising from this work. More details at
     http://www.quantum-espresso.org/quote

     Parallel version (MPI), running on     1 processors

     MPI processes distributed on     1 nodes
     Fft bands division:     nmany     =       1

     Reading xml data from directory:

     ./tmp/NbS2.save/
     file Nb.pz-spn-kjpaw_psl.1.0.0.UPF: wavefunction(s)  4S 4P 4D renormalized
     file S.pz-n-kjpaw_psl.0.1.UPF: wavefunction(s)  3P renormalized

     IMPORTANT: XC functional enforced from input :
     Exchange-correlation= PZ
                           (   1   1   0   0   0   0   0)
     Any further DFT definition will be discarded
     Please, verify this is what you really want


     G-vector sticks info
     --------------------
     sticks:   dense  smooth     PW     G-vecs:    dense   smooth      PW
     Sum        1069     421    121               110449    28023    4675


     negative rho (up, down):  1.035E-04 0.000E+00

     Gaussian broadening (read from file): ngauss,degauss=   1    0.020000


     Calling projwave .... 

  Problem Sizes 
  natomwfc =           21
  nbnd     =           30
  nkstot   =           81
  npwx     =         3522
  nkb      =           34


     Atomic states used for projection
     (read from pseudopotential files):

     state #   1: atom   1 (S  ), wfc  1 (l=0 m= 1)
     state #   2: atom   1 (S  ), wfc  2 (l=1 m= 1)
     state #   3: atom   1 (S  ), wfc  2 (l=1 m= 2)
     state #   4: atom   1 (S  ), wfc  2 (l=1 m= 3)
     state #   5: atom   2 (Nb ), wfc  1 (l=0 m= 1)
     state #   6: atom   2 (Nb ), wfc  2 (l=0 m= 1)
     state #   7: atom   2 (Nb ), wfc  3 (l=1 m= 1)
     state #   8: atom   2 (Nb ), wfc  3 (l=1 m= 2)
     state #   9: atom   2 (Nb ), wfc  3 (l=1 m= 3)
     state #  10: atom   2 (Nb ), wfc  4 (l=1 m= 1)
     state #  11: atom   2 (Nb ), wfc  4 (l=1 m= 2)
     state #  12: atom   2 (Nb ), wfc  4 (l=1 m= 3)
     state #  13: atom   2 (Nb ), wfc  5 (l=2 m= 1)
     state #  14: atom   2 (Nb ), wfc  5 (l=2 m= 2)
     state #  15: atom   2 (Nb ), wfc  5 (l=2 m= 3)
     state #  16: atom   2 (Nb ), wfc  5 (l=2 m= 4)
     state #  17: atom   2 (Nb ), wfc  5 (l=2 m= 5)
     state #  18: atom   3 (S  ), wfc  1 (l=0 m= 1)
     state #  19: atom   3 (S  ), wfc  2 (l=1 m= 1)
     state #  20: atom   3 (S  ), wfc  2 (l=1 m= 2)
     state #  21: atom   3 (S  ), wfc  2 (l=1 m= 3)

 k =   0.0000000000  0.0000000000  0.1262000000
==== e(   1) =   -53.60786 eV ==== 
     psi = 0.958*[#   5]+0.016*[#   6]+0.010*[#   2]+0.010*[#  19]+0.002*[#  13]
          +0.002*[#   1]+0.002*[#  18]
    |psi|^2 = 1.000
==== e(   2) =   -29.83791 eV ==== 
     psi = 0.968*[#   7]+0.011*[#  10]+0.006*[#   1]+0.006*[#  18]+0.004*[#   2]
          +0.004*[#  19]
    |psi|^2 = 1.000
==== e(   3) =   -29.59956 eV ==== 
     psi = 0.969*[#   9]+0.027*[#  12]+0.002*[#   4]+0.002*[#  21]
    |psi|^2 = 1.000
==== e(   4) =   -29.59956 eV ==== 
     psi = 0.969*[#   8]+0.027*[#  11]+0.002*[#   3]+0.002*[#  20]
    |psi|^2 = 1.000
==== e(   5) =   -12.55590 eV ==== 
     psi = 0.377*[#   6]+0.294*[#   1]+0.294*[#  18]+0.020*[#   5]+0.007*[#   2]
          +0.007*[#  19]
    |psi|^2 = 0.999
==== e(   6) =   -11.17980 eV ==== 
     psi = 0.356*[#  10]+0.309*[#   1]+0.309*[#  18]+0.024*[#   7]
    |psi|^2 = 0.998
==== e(   7) =    -4.17289 eV ==== 
     psi = 0.305*[#  13]+0.282*[#   2]+0.282*[#  19]+0.034*[#   1]+0.034*[#  18]
          +0.028*[#   6]+0.020*[#   5]
    |psi|^2 = 0.986
==== e(   8) =    -1.28982 eV ==== 
     psi = 0.572*[#  17]+0.200*[#   3]+0.200*[#  20]+0.009*[#  16]+0.003*[#  11]
          +0.003*[#   4]+0.003*[#  21]
    |psi|^2 = 0.990
==== e(   9) =    -1.28982 eV ==== 
     psi = 0.572*[#  16]+0.200*[#   4]+0.200*[#  21]+0.009*[#  17]+0.003*[#  12]
          +0.003*[#   3]+0.003*[#  20]
    |psi|^2 = 0.990
==== e(  10) =    -0.36450 eV ==== 
     psi = 0.482*[#   2]+0.482*[#  19]+0.019*[#  10]+0.007*[#   7]+0.002*[#   1]
          +0.002*[#  18]
    |psi|^2 = 0.993
==== e(  11) =    -0.16391 eV ==== 
     psi = 0.441*[#  15]+0.273*[#   4]+0.273*[#  21]
    |psi|^2 = 0.987
==== e(  12) =    -0.16391 eV ==== 
     psi = 0.441*[#  14]+0.273*[#   3]+0.273*[#  20]
    |psi|^2 = 0.987
==== e(  13) =     1.89512 eV ==== 
     psi = 0.623*[#  13]+0.164*[#   2]+0.164*[#  19]+0.004*[#   1]+0.004*[#  18]
          +0.001*[#   5]
    |psi|^2 = 0.961
==== e(  14) =     4.18130 eV ==== 
     psi = 0.521*[#  14]+0.218*[#   3]+0.218*[#  20]
    |psi|^2 = 0.957
==== e(  15) =     4.18130 eV ==== 
     psi = 0.521*[#  15]+0.218*[#   4]+0.218*[#  21]
    |psi|^2 = 0.957
==== e(  16) =     4.40525 eV ==== 
     psi = 0.393*[#  16]+0.283*[#   4]+0.283*[#  21]+0.018*[#  12]+0.002*[#  17]
          +0.002*[#   3]+0.002*[#  20]
    |psi|^2 = 0.983
==== e(  17) =     4.40525 eV ==== 
     psi = 0.393*[#  17]+0.283*[#   3]+0.283*[#  20]+0.018*[#  11]+0.002*[#  16]
          +0.002*[#   4]+0.002*[#  21]
    |psi|^2 = 0.983
==== e(  18) =     6.43531 eV ==== 
     psi = 0.491*[#   6]+0.137*[#   1]+0.137*[#  18]+0.027*[#   2]+0.027*[#  19]
          +0.013*[#  13]
    |psi|^2 = 0.833
==== e(  19) =     6.71129 eV ==== 
     psi = 0.103*[#  10]+0.027*[#   1]+0.027*[#  18]+0.002*[#   2]+0.002*[#  19]
          
    |psi|^2 = 0.161
==== e(  20) =     7.49057 eV ==== 
     psi = 0.029*[#  13]+0.003*[#   6]
    |psi|^2 = 0.034
==== e(  21) =     9.44793 eV ==== 
     psi = 0.463*[#  10]+0.141*[#   1]+0.141*[#  18]+0.009*[#   2]+0.009*[#  19]
          
    |psi|^2 = 0.765
==== e(  22) =     9.80458 eV ==== 
     psi = 0.002*[#  10]
    |psi|^2 = 0.002
==== e(  23) =    11.67974 eV ==== 
     psi = 0.551*[#  11]+0.017*[#   8]+0.009*[#   3]+0.009*[#  20]+0.005*[#  17]
          
    |psi|^2 = 0.590
==== e(  24) =    11.67974 eV ==== 
     psi = 0.551*[#  12]+0.017*[#   9]+0.009*[#   4]+0.009*[#  21]+0.005*[#  16]
          
    |psi|^2 = 0.590
==== e(  25) =    11.92015 eV ==== 
     psi = 0.040*[#   6]+0.018*[#  13]+0.013*[#   1]+0.013*[#  18]+0.002*[#   2]
          +0.002*[#  19]
    |psi|^2 = 0.089
==== e(  26) =    13.80040 eV ==== 
     psi = 0.014*[#  15]+0.007*[#   4]+0.007*[#  21]
    |psi|^2 = 0.027
==== e(  27) =    13.80040 eV ==== 
     psi = 0.014*[#  14]+0.007*[#   3]+0.007*[#  20]
    |psi|^2 = 0.027
==== e(  28) =    14.03570 eV ==== 
     psi = 0.010*[#   6]+0.003*[#   1]+0.003*[#  18]+0.003*[#   2]+0.003*[#  19]
          +0.002*[#  13]
    |psi|^2 = 0.025
==== e(  29) =    16.06926 eV ==== 
     psi = 0.025*[#  10]+0.006*[#   1]+0.006*[#  18]
    |psi|^2 = 0.037
==== e(  30) =    16.56071 eV ==== 
     psi = 0.002*[#   2]+0.002*[#  19]
    |psi|^2 = 0.003

 k =   0.0000000000  0.0192450090  0.1262000000
==== e(   1) =   -53.60774 eV ==== 
     psi = 0.957*[#   5]+0.015*[#   6]+0.010*[#   2]+0.010*[#  19]+0.002*[#  13]
          +0.002*[#   1]+0.002*[#  18]+0.002*[#  12]
    |psi|^2 = 1.000
==== e(   2) =   -29.83764 eV ==== 
     psi = 0.968*[#   7]+0.011*[#  10]+0.006*[#   1]+0.006*[#  18]+0.004*[#   2]
          +0.004*[#  19]
    |psi|^2 = 1.000
==== e(   3) =   -29.60086 eV ==== 
     psi = 0.969*[#   9]+0.026*[#  12]+0.002*[#   4]+0.002*[#  21]
    |psi|^2 = 1.000
==== e(   4) =   -29.59984 eV ==== 
     psi = 0.969*[#   8]+0.027*[#  11]+0.002*[#   3]+0.002*[#  20]
    |psi|^2 = 1.000
==== e(   5) =   -12.55201 eV ==== 
     psi = 0.374*[#   6]+0.294*[#   1]+0.294*[#  18]+0.020*[#   5]+0.007*[#   2]
          +0.007*[#  19]+0.003*[#  12]
    |psi|^2 = 0.999
==== e(   6) =   -11.17868 eV ==== 
     psi = 0.355*[#  10]+0.309*[#   1]+0.309*[#  18]+0.024*[#   7]
    |psi|^2 = 0.999
==== e(   7) =    -4.16826 eV ==== 
     psi = 0.305*[#  13]+0.282*[#   2]+0.282*[#  19]+0.034*[#   1]+0.034*[#  18]
          +0.028*[#   6]+0.020*[#   5]
    |psi|^2 = 0.986
==== e(   8) =    -1.30036 eV ==== 
     psi = 0.579*[#  16]+0.203*[#   4]+0.203*[#  21]+0.003*[#  12]
    |psi|^2 = 0.990
==== e(   9) =    -1.28582 eV ==== 
     psi = 0.580*[#  17]+0.203*[#   3]+0.203*[#  20]+0.003*[#  11]
    |psi|^2 = 0.990
==== e(  10) =    -0.41080 eV ==== 
     psi = 0.400*[#   2]+0.400*[#  19]+0.082*[#  15]+0.042*[#   4]+0.042*[#  21]
          +0.018*[#  10]+0.006*[#   7]+0.002*[#   1]+0.002*[#  18]
    |psi|^2 = 0.993
==== e(  11) =    -0.17080 eV ==== 
     psi = 0.441*[#  14]+0.273*[#   3]+0.273*[#  20]
    |psi|^2 = 0.987
==== e(  12) =    -0.12450 eV ==== 
     psi = 0.357*[#  15]+0.232*[#   4]+0.232*[#  21]+0.081*[#   2]+0.081*[#  19]
          +0.002*[#   7]+0.001*[#  10]
    |psi|^2 = 0.988
==== e(  13) =     1.89230 eV ==== 
     psi = 0.622*[#  13]+0.164*[#   2]+0.164*[#  19]+0.004*[#   1]+0.004*[#  18]
          +0.001*[#   5]
    |psi|^2 = 0.962
==== e(  14) =     4.17646 eV ==== 
     psi = 0.522*[#  15]+0.216*[#   4]+0.216*[#  21]
    |psi|^2 = 0.957
==== e(  15) =     4.18993 eV ==== 
     psi = 0.521*[#  14]+0.218*[#   3]+0.218*[#  20]
    |psi|^2 = 0.957
==== e(  16) =     4.39471 eV ==== 
     psi = 0.395*[#  16]+0.283*[#   4]+0.283*[#  21]+0.017*[#  12]
    |psi|^2 = 0.982
==== e(  17) =     4.40152 eV ==== 
     psi = 0.396*[#  17]+0.284*[#   3]+0.284*[#  20]+0.018*[#  11]
    |psi|^2 = 0.983
==== e(  18) =     6.45493 eV ==== 
     psi = 0.485*[#   6]+0.137*[#   1]+0.137*[#  18]+0.026*[#   2]+0.026*[#  19]
          +0.014*[#  13]+0.005*[#  12]+0.001*[#   4]+0.001*[#  21]
    |psi|^2 = 0.832
==== e(  19) =     6.71658 eV ==== 
     psi = 0.103*[#  10]+0.027*[#   1]+0.027*[#  18]+0.002*[#   2]+0.002*[#  19]
          
    |psi|^2 = 0.161
==== e(  20) =     7.49907 eV ==== 
     psi = 0.029*[#  13]+0.004*[#   6]
    |psi|^2 = 0.035
==== e(  21) =     9.46528 eV ==== 
     psi = 0.464*[#  10]+0.141*[#   1]+0.141*[#  18]+0.009*[#   2]+0.009*[#  19]
          
    |psi|^2 = 0.766
==== e(  22) =     9.81128 eV ==== 
     psi = 0.001*[#  10]
    |psi|^2 = 0.001
==== e(  23) =    11.65344 eV ==== 
     psi = 0.506*[#  12]+0.015*[#   9]+0.013*[#   6]+0.009*[#   4]+0.009*[#  21]
          +0.004*[#  16]
    |psi|^2 = 0.560
==== e(  24) =    11.69193 eV ==== 
     psi = 0.550*[#  11]+0.016*[#   8]+0.009*[#   3]+0.009*[#  20]+0.005*[#  17]
          
    |psi|^2 = 0.588
==== e(  25) =    11.94033 eV ==== 
     psi = 0.039*[#  12]+0.031*[#   6]+0.018*[#  13]+0.012*[#   1]+0.012*[#  18]
          +0.002*[#   2]+0.002*[#  19]+0.001*[#   9]
    |psi|^2 = 0.118
==== e(  26) =    13.75802 eV ==== 
     psi = 0.014*[#  15]+0.007*[#   4]+0.007*[#  21]
    |psi|^2 = 0.027
==== e(  27) =    13.79946 eV ==== 
     psi = 0.014*[#  14]+0.007*[#   3]+0.007*[#  20]
    |psi|^2 = 0.027
==== e(  28) =    14.03569 eV ==== 
     psi = 0.010*[#   6]+0.003*[#   1]+0.003*[#  18]+0.003*[#   2]+0.003*[#  19]
          +0.002*[#  13]
    |psi|^2 = 0.025
==== e(  29) =    16.06643 eV ==== 
     psi = 0.024*[#  10]+0.006*[#   1]+0.006*[#  18]
    |psi|^2 = 0.037
==== e(  30) =    16.60613 eV ==== 
     psi = 0.002*[#   2]+0.002*[#  19]
    |psi|^2 = 0.004

 k =   0.0000000000  0.0384900179  0.1262000000
==== e(   1) =   -53.60736 eV ==== 
     psi = 0.955*[#   5]+0.014*[#   6]+0.010*[#   2]+0.010*[#  19]+0.006*[#  12]
          +0.002*[#  13]+0.002*[#   1]+0.002*[#  18]
    |psi|^2 = 1.000
==== e(   2) =   -29.83680 eV ==== 
     psi = 0.968*[#   7]+0.011*[#  10]+0.006*[#   1]+0.006*[#  18]+0.004*[#   2]
          +0.004*[#  19]
    |psi|^2 = 1.000
==== e(   3) =   -29.60472 eV ==== 
     psi = 0.970*[#   9]+0.025*[#  12]+0.002*[#   4]+0.002*[#  21]+0.001*[#   6]
          
    |psi|^2 = 1.000
==== e(   4) =   -29.60069 eV ==== 
     psi = 0.969*[#   8]+0.027*[#  11]+0.002*[#   3]+0.002*[#  20]
    |psi|^2 = 1.000
==== e(   5) =   -12.54035 eV ==== 
     psi = 0.367*[#   6]+0.293*[#   1]+0.293*[#  18]+0.020*[#   5]+0.011*[#  12]
          +0.007*[#   2]+0.007*[#  19]
    |psi|^2 = 0.999
==== e(   6) =   -11.17532 eV ==== 
     psi = 0.353*[#  10]+0.310*[#   1]+0.310*[#  18]+0.024*[#   7]+0.002*[#  15]
          
    |psi|^2 = 0.999
==== e(   7) =    -4.15445 eV ==== 
     psi = 0.303*[#  13]+0.283*[#   2]+0.283*[#  19]+0.034*[#   1]+0.034*[#  18]
          +0.027*[#   6]+0.020*[#   5]
    |psi|^2 = 0.986
==== e(   8) =    -1.33158 eV ==== 
     psi = 0.574*[#  16]+0.203*[#   4]+0.203*[#  21]+0.004*[#   6]+0.003*[#  12]
          +0.001*[#   1]+0.001*[#  18]
    |psi|^2 = 0.990
==== e(   9) =    -1.27387 eV ==== 
     psi = 0.577*[#  17]+0.204*[#   3]+0.204*[#  20]+0.004*[#  11]
    |psi|^2 = 0.990
==== e(  10) =    -0.50445 eV ==== 
     psi = 0.324*[#   2]+0.324*[#  19]+0.160*[#  15]+0.079*[#   4]+0.079*[#  21]
          +0.018*[#  10]+0.004*[#   7]+0.001*[#   1]+0.001*[#  18]
    |psi|^2 = 0.992
==== e(  11) =    -0.19122 eV ==== 
     psi = 0.441*[#  14]+0.273*[#   3]+0.273*[#  20]
    |psi|^2 = 0.988
==== e(  12) =    -0.05166 eV ==== 
     psi = 0.272*[#  15]+0.198*[#   4]+0.198*[#  21]+0.157*[#   2]+0.157*[#  19]
          +0.003*[#   7]+0.002*[#  10]
    |psi|^2 = 0.988
==== e(  13) =     1.88364 eV ==== 
     psi = 0.621*[#  13]+0.161*[#   2]+0.161*[#  19]+0.004*[#   1]+0.004*[#  18]
          +0.004*[#  16]+0.003*[#  12]+0.002*[#   4]+0.002*[#  21]
    |psi|^2 = 0.963
==== e(  14) =     4.16282 eV ==== 
     psi = 0.526*[#  15]+0.210*[#   4]+0.210*[#  21]+0.004*[#   1]+0.004*[#  18]
          +0.003*[#  10]
    |psi|^2 = 0.957
==== e(  15) =     4.21551 eV ==== 
     psi = 0.521*[#  14]+0.218*[#   3]+0.218*[#  20]
    |psi|^2 = 0.957
==== e(  16) =     4.36429 eV ==== 
     psi = 0.396*[#  16]+0.278*[#   4]+0.278*[#  21]+0.014*[#  12]+0.003*[#   6]
          +0.002*[#   2]+0.002*[#  13]+0.002*[#  19]+0.001*[#   1]+0.001*[#  18]
          
    |psi|^2 = 0.979
==== e(  17) =     4.39047 eV ==== 
     psi = 0.398*[#  17]+0.283*[#   3]+0.283*[#  20]+0.018*[#  11]
    |psi|^2 = 0.983
==== e(  18) =     6.51258 eV ==== 
     psi = 0.466*[#   6]+0.136*[#   1]+0.136*[#  18]+0.026*[#   2]+0.026*[#  19]
          +0.019*[#  12]+0.015*[#  13]+0.004*[#   4]+0.004*[#  21]
    |psi|^2 = 0.831
==== e(  19) =     6.73239 eV ==== 
     psi = 0.103*[#  10]+0.026*[#   1]+0.026*[#  18]+0.002*[#   2]+0.002*[#  19]
          
    |psi|^2 = 0.160
==== e(  20) =     7.52460 eV ==== 
     psi = 0.028*[#  13]+0.005*[#   6]+0.002*[#  16]
    |psi|^2 = 0.038
==== e(  21) =     9.51526 eV ==== 
     psi = 0.465*[#  10]+0.138*[#   1]+0.138*[#  18]+0.009*[#   2]+0.009*[#  19]
          +0.003*[#   4]+0.003*[#  21]
    |psi|^2 = 0.765
==== e(  22) =     9.83252 eV ==== 

    |psi|^2 = 0.001
==== e(  23) =    11.58929 eV ==== 
     psi = 0.438*[#  12]+0.040*[#   6]+0.013*[#   9]+0.009*[#   4]+0.009*[#  21]
          +0.004*[#  16]+0.002*[#   5]+0.001*[#   1]+0.001*[#  18]+0.001*[#   2]
          +0.001*[#  13]+0.001*[#  19]
    |psi|^2 = 0.521
==== e(  24) =    11.72842 eV ==== 
     psi = 0.545*[#  11]+0.016*[#   8]+0.009*[#   3]+0.009*[#  20]+0.004*[#  17]
          
    |psi|^2 = 0.584
==== e(  25) =    11.98702 eV ==== 
     psi = 0.090*[#  12]+0.018*[#   6]+0.018*[#  13]+0.011*[#   1]+0.011*[#  18]
          +0.002*[#   9]+0.002*[#   2]+0.002*[#  19]
    |psi|^2 = 0.155
==== e(  26) =    13.64002 eV ==== 
     psi = 0.013*[#  15]+0.007*[#   4]+0.007*[#  21]
    |psi|^2 = 0.027
==== e(  27) =    13.79686 eV ==== 
     psi = 0.013*[#  14]+0.007*[#   3]+0.007*[#  20]
    |psi|^2 = 0.026
==== e(  28) =    14.03466 eV ==== 
     psi = 0.009*[#   6]+0.003*[#   1]+0.003*[#  18]+0.003*[#   2]+0.003*[#  19]
          +0.002*[#  13]+0.001*[#  16]
    |psi|^2 = 0.026
==== e(  29) =    16.05485 eV ==== 
     psi = 0.022*[#  10]+0.005*[#   1]+0.005*[#  18]+0.001*[#  15]
    |psi|^2 = 0.035
==== e(  30) =    16.71709 eV ==== 
     psi = 0.004*[#  15]+0.001*[#   2]+0.001*[#  19]
    |psi|^2 = 0.008

 k =   0.0000000000  0.0577350269  0.1262000000
==== e(   1) =   -53.60674 eV ==== 
     psi = 0.950*[#   5]+0.013*[#  12]+0.012*[#   6]+0.010*[#   2]+0.010*[#  19]
          +0.002*[#  13]+0.001*[#   1]+0.001*[#  18]
    |psi|^2 = 1.000
==== e(   2) =   -29.83545 eV ==== 
     psi = 0.968*[#   7]+0.011*[#  10]+0.006*[#   1]+0.006*[#  18]+0.004*[#   2]
          +0.004*[#  19]
    |psi|^2 = 1.000
==== e(   3) =   -29.61114 eV ==== 
     psi = 0.971*[#   9]+0.022*[#  12]+0.002*[#   6]+0.002*[#   4]+0.002*[#  21]
          
    |psi|^2 = 1.000
==== e(   4) =   -29.60210 eV ==== 
     psi = 0.969*[#   8]+0.027*[#  11]+0.002*[#   3]+0.002*[#  20]
    |psi|^2 = 1.000
==== e(   5) =   -12.52102 eV ==== 
     psi = 0.355*[#   6]+0.292*[#   1]+0.292*[#  18]+0.024*[#  12]+0.020*[#   5]
          +0.007*[#   2]+0.007*[#  19]
    |psi|^2 = 0.999
==== e(   6) =   -11.16975 eV ==== 
     psi = 0.349*[#  10]+0.311*[#   1]+0.311*[#  18]+0.023*[#   7]+0.003*[#  15]
          
    |psi|^2 = 0.999
==== e(   7) =    -4.13167 eV ==== 
     psi = 0.301*[#  13]+0.283*[#   2]+0.283*[#  19]+0.034*[#   1]+0.034*[#  18]
          +0.027*[#   6]+0.019*[#   5]+0.002*[#  16]
    |psi|^2 = 0.986
==== e(   8) =    -1.38229 eV ==== 
     psi = 0.565*[#  16]+0.203*[#   4]+0.203*[#  21]+0.008*[#   6]+0.003*[#  12]
          +0.002*[#   1]+0.002*[#  18]
    |psi|^2 = 0.990
==== e(   9) =    -1.25409 eV ==== 
     psi = 0.572*[#  17]+0.206*[#   3]+0.206*[#  20]+0.005*[#  11]+0.001*[#   8]
          
    |psi|^2 = 0.990
==== e(  10) =    -0.61304 eV ==== 
     psi = 0.280*[#   2]+0.280*[#  19]+0.207*[#  15]+0.100*[#   4]+0.100*[#  21]
          +0.020*[#  10]+0.003*[#   7]+0.001*[#   1]+0.001*[#  18]
    |psi|^2 = 0.992
==== e(  11) =    -0.22447 eV ==== 
     psi = 0.442*[#  14]+0.273*[#   3]+0.273*[#  20]
    |psi|^2 = 0.988
==== e(  12) =     0.02175 eV ==== 
     psi = 0.216*[#  15]+0.200*[#   2]+0.200*[#  19]+0.182*[#   4]+0.182*[#  21]
          +0.004*[#   7]+0.002*[#  10]
    |psi|^2 = 0.988
==== e(  13) =     1.86857 eV ==== 
     psi = 0.618*[#  13]+0.158*[#   2]+0.158*[#  19]+0.008*[#  16]+0.006*[#  12]
          +0.005*[#   1]+0.005*[#  18]+0.004*[#   4]+0.004*[#  21]
    |psi|^2 = 0.965
==== e(  14) =     4.14278 eV ==== 
     psi = 0.533*[#  15]+0.200*[#   4]+0.200*[#  21]+0.008*[#   1]+0.008*[#  18]
          +0.005*[#  10]+0.001*[#   2]+0.001*[#  19]
    |psi|^2 = 0.956
==== e(  15) =     4.25720 eV ==== 
     psi = 0.521*[#  14]+0.219*[#   3]+0.219*[#  20]
    |psi|^2 = 0.958
==== e(  16) =     4.31719 eV ==== 
     psi = 0.396*[#  16]+0.269*[#   4]+0.269*[#  21]+0.010*[#  12]+0.006*[#  13]
          +0.006*[#   6]+0.005*[#   2]+0.005*[#  19]+0.003*[#   1]+0.003*[#  18]
          
    |psi|^2 = 0.973
==== e(  17) =     4.37254 eV ==== 
     psi = 0.403*[#  17]+0.280*[#   3]+0.280*[#  20]+0.018*[#  11]
    |psi|^2 = 0.982
==== e(  18) =     6.60476 eV ==== 
     psi = 0.438*[#   6]+0.134*[#   1]+0.134*[#  18]+0.040*[#  12]+0.025*[#   2]
          +0.025*[#  19]+0.017*[#  13]+0.008*[#   4]+0.008*[#  21]
    |psi|^2 = 0.829
==== e(  19) =     6.75857 eV ==== 
     psi = 0.102*[#  10]+0.025*[#   1]+0.025*[#  18]+0.002*[#   2]+0.002*[#  19]
          +0.001*[#  15]
    |psi|^2 = 0.160
==== e(  20) =     7.56725 eV ==== 
     psi = 0.027*[#  13]+0.008*[#   6]+0.003*[#  16]+0.001*[#   1]+0.001*[#   2]
          +0.001*[#  18]+0.001*[#  19]
    |psi|^2 = 0.044
==== e(  21) =     9.59080 eV ==== 
     psi = 0.458*[#  10]+0.130*[#   1]+0.130*[#  18]+0.009*[#   2]+0.009*[#  19]
          +0.006*[#   4]+0.006*[#  21]+0.002*[#  15]
    |psi|^2 = 0.750
==== e(  22) =     9.87266 eV ==== 
     psi = 0.006*[#  10]+0.004*[#   1]+0.004*[#  18]
    |psi|^2 = 0.016
==== e(  23) =    11.50429 eV ==== 
     psi = 0.384*[#  12]+0.068*[#   6]+0.012*[#   9]+0.009*[#   4]+0.009*[#  21]
          +0.004*[#   5]+0.004*[#  16]+0.002*[#   2]+0.002*[#  19]+0.002*[#   1]
          +0.002*[#  18]+0.001*[#  13]
    |psi|^2 = 0.499
==== e(  24) =    11.78855 eV ==== 
     psi = 0.538*[#  11]+0.016*[#   8]+0.010*[#   3]+0.010*[#  20]+0.004*[#  17]
          
    |psi|^2 = 0.578
==== e(  25) =    12.04461 eV ==== 
     psi = 0.118*[#  12]+0.018*[#  13]+0.011*[#   1]+0.011*[#  18]+0.009*[#   6]
          +0.003*[#   9]+0.001*[#   2]+0.001*[#  19]
    |psi|^2 = 0.174
==== e(  26) =    13.46650 eV ==== 
     psi = 0.013*[#  15]+0.007*[#   4]+0.007*[#  21]+0.001*[#  10]
    |psi|^2 = 0.028
==== e(  27) =    13.79343 eV ==== 
     psi = 0.013*[#  14]+0.006*[#   3]+0.006*[#  20]
    |psi|^2 = 0.025
==== e(  28) =    14.02946 eV ==== 
     psi = 0.009*[#   6]+0.003*[#   1]+0.003*[#  18]+0.003*[#   2]+0.003*[#  19]
          +0.003*[#  13]+0.002*[#  16]
    |psi|^2 = 0.027
==== e(  29) =    16.02626 eV ==== 
     psi = 0.019*[#  10]+0.004*[#   1]+0.004*[#  18]+0.003*[#  15]
    |psi|^2 = 0.031
==== e(  30) =    16.76117 eV ==== 
     psi = 0.012*[#  15]+0.005*[#  10]+0.002*[#   1]+0.002*[#  18]
    |psi|^2 = 0.023

 k =   0.0000000000  0.0769800359  0.1262000000
==== e(   1) =   -53.60589 eV ==== 
     psi = 0.944*[#   5]+0.022*[#  12]+0.009*[#   2]+0.009*[#  19]+0.009*[#   6]
          +0.002*[#  13]+0.001*[#   1]+0.001*[#  18]
    |psi|^2 = 1.000
==== e(   2) =   -29.83359 eV ==== 
     psi = 0.968*[#   7]+0.010*[#  10]+0.006*[#   1]+0.006*[#  18]+0.004*[#   2]
          +0.004*[#  19]
    |psi|^2 = 1.000
==== e(   3) =   -29.62003 eV ==== 
     psi = 0.972*[#   9]+0.019*[#  12]+0.004*[#   6]+0.002*[#   4]+0.002*[#  21]
          
    |psi|^2 = 1.000
==== e(   4) =   -29.60405 eV ==== 
     psi = 0.969*[#   8]+0.027*[#  11]+0.002*[#   3]+0.002*[#  20]
    |psi|^2 = 1.000
==== e(   5) =   -12.49416 eV ==== 
     psi = 0.339*[#   6]+0.291*[#   1]+0.291*[#  18]+0.040*[#  12]+0.021*[#   5]
          +0.006*[#   2]+0.006*[#  19]+0.001*[#  16]+0.001*[#   4]+0.001*[#  21]
          
    |psi|^2 = 0.999
==== e(   6) =   -11.16201 eV ==== 
     psi = 0.344*[#  10]+0.312*[#   1]+0.312*[#  18]+0.023*[#   7]+0.006*[#  15]
          
    |psi|^2 = 0.999
==== e(   7) =    -4.10030 eV ==== 
     psi = 0.298*[#  13]+0.284*[#   2]+0.284*[#  19]+0.033*[#   1]+0.033*[#  18]
          +0.026*[#   6]+0.019*[#   5]+0.004*[#  16]+0.001*[#   4]+0.001*[#  21]
          +0.001*[#   9]+0.001*[#  12]
    |psi|^2 = 0.986
==== e(   8) =    -1.45065 eV ==== 
     psi = 0.553*[#  16]+0.204*[#   4]+0.204*[#  21]+0.014*[#   6]+0.004*[#   1]
          +0.004*[#  18]+0.004*[#  12]
    |psi|^2 = 0.990
==== e(   9) =    -1.22666 eV ==== 
     psi = 0.566*[#  17]+0.208*[#   3]+0.208*[#  20]+0.007*[#  11]+0.001*[#   8]
          
    |psi|^2 = 0.990
==== e(  10) =    -0.72869 eV ==== 
     psi = 0.250*[#   2]+0.250*[#  19]+0.237*[#  15]+0.114*[#   4]+0.114*[#  21]
          +0.022*[#  10]+0.002*[#   7]+0.001*[#   1]+0.001*[#  18]
    |psi|^2 = 0.992
==== e(  11) =    -0.26946 eV ==== 
     psi = 0.442*[#  14]+0.273*[#   3]+0.273*[#  20]
    |psi|^2 = 0.988
==== e(  12) =     0.08722 eV ==== 
     psi = 0.230*[#   2]+0.230*[#  19]+0.175*[#   4]+0.175*[#  21]+0.171*[#  15]
          +0.005*[#   7]+0.001*[#  10]
    |psi|^2 = 0.988
==== e(  13) =     1.84616 eV ==== 
     psi = 0.613*[#  13]+0.153*[#   2]+0.153*[#  19]+0.015*[#  16]+0.009*[#  12]
          +0.006*[#   4]+0.006*[#  21]+0.005*[#   1]+0.005*[#  18]
    |psi|^2 = 0.968
==== e(  14) =     4.11994 eV ==== 
     psi = 0.541*[#  15]+0.188*[#   4]+0.188*[#  21]+0.013*[#   1]+0.013*[#  18]
          +0.009*[#  10]+0.003*[#   2]+0.003*[#  19]
    |psi|^2 = 0.956
==== e(  15) =     4.25795 eV ==== 
     psi = 0.395*[#  16]+0.259*[#   4]+0.259*[#  21]+0.012*[#  13]+0.009*[#   2]
          +0.009*[#  19]+0.008*[#   6]+0.006*[#  12]+0.004*[#   1]+0.004*[#  18]
          
    |psi|^2 = 0.967
==== e(  16) =     4.31366 eV ==== 
     psi = 0.521*[#  14]+0.219*[#   3]+0.219*[#  20]
    |psi|^2 = 0.959
==== e(  17) =     4.34837 eV ==== 
     psi = 0.409*[#  17]+0.277*[#   3]+0.277*[#  20]+0.018*[#  11]
    |psi|^2 = 0.982
==== e(  18) =     6.72618 eV ==== 
     psi = 0.401*[#   6]+0.131*[#   1]+0.131*[#  18]+0.065*[#  12]+0.024*[#   2]
          +0.024*[#  19]+0.019*[#  13]+0.013*[#   4]+0.013*[#  21]+0.001*[#   5]
          
    |psi|^2 = 0.824
==== e(  19) =     6.79491 eV ==== 
     psi = 0.102*[#  10]+0.024*[#   1]+0.024*[#  18]+0.002*[#  15]+0.002*[#   2]
          +0.002*[#  19]+0.001*[#   4]+0.001*[#  21]
    |psi|^2 = 0.159
==== e(  20) =     7.62762 eV ==== 
     psi = 0.026*[#  13]+0.014*[#   6]+0.006*[#  16]+0.002*[#   1]+0.002*[#  18]
          +0.002*[#   2]+0.002*[#  19]
    |psi|^2 = 0.054
==== e(  21) =     9.67788 eV ==== 
     psi = 0.423*[#  10]+0.114*[#   1]+0.114*[#  18]+0.008*[#   2]+0.008*[#  19]
          +0.008*[#   4]+0.008*[#  21]+0.003*[#  15]
    |psi|^2 = 0.686
==== e(  22) =     9.94125 eV ==== 
     psi = 0.039*[#  10]+0.015*[#   1]+0.015*[#  18]+0.003*[#   4]+0.003*[#  21]
          +0.001*[#   2]+0.001*[#  19]
    |psi|^2 = 0.077
==== e(  23) =    11.40642 eV ==== 
     psi = 0.341*[#  12]+0.097*[#   6]+0.010*[#   9]+0.010*[#   4]+0.010*[#  21]
          +0.006*[#   5]+0.003*[#  16]+0.003*[#   2]+0.003*[#  19]+0.002*[#   1]
          +0.002*[#  18]
    |psi|^2 = 0.488
==== e(  24) =    11.87157 eV ==== 
     psi = 0.528*[#  11]+0.016*[#   8]+0.010*[#   3]+0.010*[#  20]+0.004*[#  17]
          
    |psi|^2 = 0.569
==== e(  25) =    12.10751 eV ==== 
     psi = 0.130*[#  12]+0.019*[#  13]+0.011*[#   1]+0.011*[#  18]+0.004*[#   6]
          +0.003*[#   9]+0.002*[#   5]
    |psi|^2 = 0.182
==== e(  26) =    13.25870 eV ==== 
     psi = 0.013*[#  15]+0.007*[#   4]+0.007*[#  21]+0.002*[#  10]
    |psi|^2 = 0.030
==== e(  27) =    13.79026 eV ==== 
     psi = 0.012*[#  14]+0.006*[#   3]+0.006*[#  20]
    |psi|^2 = 0.024
==== e(  28) =    14.01612 eV ==== 
     psi = 0.008*[#   6]+0.004*[#  16]+0.003*[#   1]+0.003*[#  18]+0.003*[#   2]
          +0.003*[#  13]+0.003*[#  19]+0.001*[#  12]
    |psi|^2 = 0.028
==== e(  29) =    15.96882 eV ==== 
     psi = 0.014*[#  10]+0.005*[#  15]+0.003*[#   1]+0.003*[#  18]
    |psi|^2 = 0.026
==== e(  30) =    16.71492 eV ==== 
     psi = 0.012*[#  10]+0.011*[#  15]+0.005*[#   1]+0.005*[#  18]
    |psi|^2 = 0.034

 k =   0.0000000000  0.0962250449  0.1262000000
==== e(   1) =   -53.60481 eV ==== 
     psi = 0.938*[#   5]+0.032*[#  12]+0.009*[#   2]+0.009*[#  19]+0.007*[#   6]
          +0.002*[#  13]+0.001*[#   1]+0.001*[#  18]
    |psi|^2 = 1.000
==== e(   2) =   -29.83124 eV ==== 
     psi = 0.969*[#   7]+0.010*[#  10]+0.006*[#   1]+0.006*[#  18]+0.004*[#   2]
          +0.004*[#  19]
    |psi|^2 = 1.000
==== e(   3) =   -29.63124 eV ==== 
     psi = 0.973*[#   9]+0.015*[#  12]+0.005*[#   6]+0.002*[#   4]+0.002*[#  21]
          
    |psi|^2 = 1.000
==== e(   4) =   -29.60652 eV ==== 
     psi = 0.969*[#   8]+0.026*[#  11]+0.002*[#   3]+0.002*[#  20]
    |psi|^2 = 1.000
==== e(   5) =   -12.45997 eV ==== 
     psi = 0.322*[#   6]+0.289*[#   1]+0.289*[#  18]+0.059*[#  12]+0.021*[#   5]
          +0.006*[#   2]+0.006*[#  19]+0.002*[#  16]+0.001*[#   4]+0.001*[#  21]
          +0.001*[#   9]
    |psi|^2 = 0.999
==== e(   6) =   -11.15215 eV ==== 
     psi = 0.337*[#  10]+0.314*[#   1]+0.314*[#  18]+0.022*[#   7]+0.009*[#  15]
          
    |psi|^2 = 0.999
==== e(   7) =    -4.06086 eV ==== 
     psi = 0.294*[#  13]+0.285*[#   2]+0.285*[#  19]+0.033*[#   1]+0.033*[#  18]
          +0.026*[#   6]+0.018*[#   5]+0.006*[#  16]+0.002*[#   4]+0.002*[#  21]
          +0.002*[#   9]+0.002*[#  12]
    |psi|^2 = 0.986
==== e(   8) =    -1.53426 eV ==== 
     psi = 0.538*[#  16]+0.205*[#   4]+0.205*[#  21]+0.020*[#   6]+0.007*[#   1]
          +0.007*[#  18]+0.004*[#  12]+0.001*[#   5]
    |psi|^2 = 0.989
==== e(   9) =    -1.19187 eV ==== 
     psi = 0.557*[#  17]+0.212*[#   3]+0.212*[#  20]+0.009*[#  11]+0.001*[#   8]
          
    |psi|^2 = 0.990
==== e(  10) =    -0.84871 eV ==== 
     psi = 0.259*[#  15]+0.226*[#   2]+0.226*[#  19]+0.126*[#   4]+0.126*[#  21]
          +0.025*[#  10]+0.002*[#   7]+0.001*[#   1]+0.001*[#  18]
    |psi|^2 = 0.992
==== e(  11) =    -0.32480 eV ==== 
     psi = 0.443*[#  14]+0.273*[#   3]+0.273*[#  20]
    |psi|^2 = 0.988
==== e(  12) =     0.14138 eV ==== 
     psi = 0.251*[#   2]+0.251*[#  19]+0.172*[#   4]+0.172*[#  21]+0.133*[#  15]
          +0.006*[#   7]
    |psi|^2 = 0.987
==== e(  13) =     1.81531 eV ==== 
     psi = 0.607*[#  13]+0.147*[#   2]+0.147*[#  19]+0.026*[#  16]+0.012*[#  12]
          +0.010*[#   4]+0.010*[#  21]+0.005*[#   1]+0.005*[#  18]
    |psi|^2 = 0.971
==== e(  14) =     4.09852 eV ==== 
     psi = 0.551*[#  15]+0.173*[#   4]+0.173*[#  21]+0.018*[#   1]+0.018*[#  18]
          +0.013*[#  10]+0.004*[#   2]+0.004*[#  19]
    |psi|^2 = 0.955
==== e(  15) =     4.19169 eV ==== 
     psi = 0.393*[#  16]+0.247*[#   4]+0.247*[#  21]+0.020*[#  13]+0.014*[#   2]
          +0.014*[#  19]+0.009*[#   6]+0.006*[#   1]+0.006*[#  18]+0.003*[#  12]
          
    |psi|^2 = 0.960
==== e(  16) =     4.31885 eV ==== 
     psi = 0.417*[#  17]+0.273*[#   3]+0.273*[#  20]+0.018*[#  11]
    |psi|^2 = 0.981
==== e(  17) =     4.38321 eV ==== 
     psi = 0.521*[#  14]+0.219*[#   3]+0.219*[#  20]
    |psi|^2 = 0.960
==== e(  18) =     6.84117 eV ==== 
     psi = 0.102*[#  10]+0.023*[#   1]+0.023*[#  18]+0.003*[#  15]+0.002*[#   2]
          +0.002*[#   4]+0.002*[#  19]+0.002*[#  21]
    |psi|^2 = 0.159
==== e(  19) =     6.86990 eV ==== 
     psi = 0.359*[#   6]+0.128*[#   1]+0.128*[#  18]+0.093*[#  12]+0.023*[#   2]
          +0.023*[#  19]+0.023*[#  13]+0.017*[#   4]+0.017*[#  21]+0.001*[#   5]
          
    |psi|^2 = 0.813
==== e(  20) =     7.70730 eV ==== 
     psi = 0.024*[#   6]+0.023*[#  13]+0.009*[#  16]+0.004*[#   1]+0.004*[#  18]
          +0.002*[#   2]+0.002*[#  19]
    |psi|^2 = 0.070
==== e(  21) =     9.75901 eV ==== 
     psi = 0.352*[#  10]+0.088*[#   1]+0.088*[#  18]+0.008*[#   4]+0.008*[#  21]
          +0.007*[#   2]+0.007*[#  19]+0.003*[#  15]
    |psi|^2 = 0.561
==== e(  22) =    10.05014 eV ==== 
     psi = 0.108*[#  10]+0.034*[#   1]+0.034*[#  18]+0.008*[#   4]+0.008*[#  21]
          +0.002*[#   2]+0.002*[#  19]+0.001*[#  15]
    |psi|^2 = 0.198
==== e(  23) =    11.30019 eV ==== 
     psi = 0.304*[#  12]+0.126*[#   6]+0.011*[#   4]+0.011*[#  21]+0.009*[#   9]
          +0.009*[#   5]+0.003*[#   2]+0.003*[#  19]+0.003*[#  16]+0.002*[#   1]
          +0.002*[#  18]
    |psi|^2 = 0.483
==== e(  24) =    11.97648 eV ==== 
     psi = 0.516*[#  11]+0.015*[#   8]+0.011*[#   3]+0.011*[#  20]+0.004*[#  17]
          
    |psi|^2 = 0.558
==== e(  25) =    12.17362 eV ==== 
     psi = 0.133*[#  12]+0.019*[#  13]+0.011*[#   1]+0.011*[#  18]+0.003*[#   5]
          +0.003*[#   9]+0.002*[#   6]
    |psi|^2 = 0.184
==== e(  26) =    13.03405 eV ==== 
     psi = 0.013*[#  15]+0.007*[#   4]+0.007*[#  21]+0.004*[#  10]
    |psi|^2 = 0.033
==== e(  27) =    13.78870 eV ==== 
     psi = 0.011*[#  14]+0.006*[#   3]+0.006*[#  20]
    |psi|^2 = 0.023
==== e(  28) =    13.99072 eV ==== 
     psi = 0.007*[#   6]+0.006*[#  16]+0.003*[#   1]+0.003*[#  13]+0.003*[#  18]
          +0.003*[#   2]+0.003*[#  19]+0.002*[#  12]
    |psi|^2 = 0.030
==== e(  29) =    15.87330 eV ==== 
     psi = 0.009*[#  10]+0.008*[#  15]+0.001*[#   1]+0.001*[#  18]
    |psi|^2 = 0.021
==== e(  30) =    16.67680 eV ==== 
     psi = 0.019*[#  10]+0.008*[#  15]+0.006*[#   1]+0.006*[#  18]
    |psi|^2 = 0.042

 k =   0.0000000000  0.1154700538  0.1262000000
==== e(   1) =   -53.60351 eV ==== 
     psi = 0.932*[#   5]+0.041*[#  12]+0.009*[#   2]+0.009*[#  19]+0.004*[#   6]
          +0.002*[#  13]
    |psi|^2 = 1.000
==== e(   2) =   -29.82840 eV ==== 
     psi = 0.969*[#   7]+0.009*[#  10]+0.006*[#   1]+0.006*[#  18]+0.004*[#   2]
          +0.004*[#  19]
    |psi|^2 = 1.000
==== e(   3) =   -29.64465 eV ==== 
     psi = 0.975*[#   9]+0.012*[#  12]+0.007*[#   6]+0.002*[#   4]+0.002*[#  21]
          
    |psi|^2 = 1.000
==== e(   4) =   -29.60948 eV ==== 
     psi = 0.969*[#   8]+0.026*[#  11]+0.002*[#   3]+0.002*[#  20]
    |psi|^2 = 1.000
==== e(   5) =   -12.41869 eV ==== 
     psi = 0.302*[#   6]+0.287*[#   1]+0.287*[#  18]+0.080*[#  12]+0.021*[#   5]
          +0.006*[#   2]+0.006*[#  19]+0.003*[#  16]+0.002*[#   4]+0.002*[#  21]
          +0.002*[#   9]
    |psi|^2 = 0.999
==== e(   6) =   -11.14024 eV ==== 
     psi = 0.329*[#  10]+0.316*[#   1]+0.316*[#  18]+0.022*[#   7]+0.014*[#  15]
          
    |psi|^2 = 0.999
==== e(   7) =    -4.01409 eV ==== 
     psi = 0.289*[#  13]+0.286*[#   2]+0.286*[#  19]+0.032*[#   1]+0.032*[#  18]
          +0.025*[#   6]+0.017*[#   5]+0.009*[#  16]+0.003*[#   4]+0.003*[#  21]
          +0.002*[#   9]+0.002*[#  12]
    |psi|^2 = 0.986
==== e(   8) =    -1.63042 eV ==== 
     psi = 0.520*[#  16]+0.206*[#   4]+0.206*[#  21]+0.027*[#   6]+0.009*[#   1]
          +0.009*[#  18]+0.005*[#  12]+0.002*[#   5]+0.002*[#   2]+0.002*[#  19]
          +0.001*[#  13]
    |psi|^2 = 0.989
==== e(   9) =    -1.15006 eV ==== 
     psi = 0.547*[#  17]+0.216*[#   3]+0.216*[#  20]+0.011*[#  11]+0.001*[#   8]
          
    |psi|^2 = 0.990
==== e(  10) =    -0.97175 eV ==== 
     psi = 0.274*[#  15]+0.206*[#   2]+0.206*[#  19]+0.137*[#   4]+0.137*[#  21]
          +0.029*[#  10]+0.001*[#   1]+0.001*[#  18]+0.001*[#   7]
    |psi|^2 = 0.992
==== e(  11) =    -0.38896 eV ==== 
     psi = 0.443*[#  14]+0.273*[#   3]+0.273*[#  20]
    |psi|^2 = 0.988
==== e(  12) =     0.18237 eV ==== 
     psi = 0.269*[#   2]+0.269*[#  19]+0.170*[#   4]+0.170*[#  21]+0.101*[#  15]
          +0.007*[#   7]
    |psi|^2 = 0.987
==== e(  13) =     1.77475 eV ==== 
     psi = 0.598*[#  13]+0.139*[#   2]+0.139*[#  19]+0.039*[#  16]+0.015*[#   4]
          +0.015*[#  21]+0.015*[#  12]+0.006*[#   1]+0.006*[#  18]
    |psi|^2 = 0.974
==== e(  14) =     4.08276 eV ==== 
     psi = 0.561*[#  15]+0.157*[#   4]+0.157*[#  21]+0.024*[#   1]+0.024*[#  18]
          +0.016*[#  10]+0.007*[#   2]+0.007*[#  19]
    |psi|^2 = 0.955
==== e(  15) =     4.12355 eV ==== 
     psi = 0.389*[#  16]+0.234*[#   4]+0.234*[#  21]+0.032*[#  13]+0.020*[#   2]
          +0.020*[#  19]+0.008*[#   6]+0.007*[#   1]+0.007*[#  18]+0.001*[#  12]
          
    |psi|^2 = 0.953
==== e(  16) =     4.28506 eV ==== 
     psi = 0.426*[#  17]+0.267*[#   3]+0.267*[#  20]+0.018*[#  11]
    |psi|^2 = 0.980
==== e(  17) =     4.46393 eV ==== 
     psi = 0.521*[#  14]+0.220*[#   3]+0.220*[#  20]
    |psi|^2 = 0.961
==== e(  18) =     6.89709 eV ==== 
     psi = 0.102*[#  10]+0.021*[#   1]+0.021*[#  18]+0.005*[#  15]+0.003*[#   4]
          +0.003*[#  21]+0.002*[#   2]+0.002*[#  19]
    |psi|^2 = 0.159
==== e(  19) =     7.02731 eV ==== 
     psi = 0.310*[#   6]+0.122*[#   1]+0.122*[#  18]+0.120*[#  12]+0.028*[#  13]
          +0.022*[#   2]+0.022*[#  19]+0.021*[#   4]+0.021*[#  21]+0.002*[#   5]
          
    |psi|^2 = 0.791
==== e(  20) =     7.80933 eV ==== 
     psi = 0.040*[#   6]+0.020*[#  13]+0.012*[#  16]+0.008*[#   1]+0.008*[#  18]
          +0.004*[#   2]+0.004*[#  19]
    |psi|^2 = 0.096
==== e(  21) =     9.82754 eV ==== 
     psi = 0.280*[#  10]+0.065*[#   1]+0.065*[#  18]+0.007*[#   4]+0.007*[#  21]
          +0.005*[#   2]+0.005*[#  19]+0.003*[#  15]
    |psi|^2 = 0.438
==== e(  22) =    10.19850 eV ==== 
     psi = 0.176*[#  10]+0.050*[#   1]+0.050*[#  18]+0.013*[#   4]+0.013*[#  21]
          +0.004*[#   2]+0.004*[#  19]+0.002*[#  15]
    |psi|^2 = 0.313
==== e(  23) =    11.18867 eV ==== 
     psi = 0.272*[#  12]+0.154*[#   6]+0.012*[#   4]+0.012*[#  21]+0.011*[#   5]
          +0.008*[#   9]+0.004*[#   2]+0.004*[#  19]+0.002*[#  16]+0.001*[#   1]
          +0.001*[#  18]
    |psi|^2 = 0.482
==== e(  24) =    12.10186 eV ==== 
     psi = 0.503*[#  11]+0.015*[#   8]+0.012*[#   3]+0.012*[#  20]+0.004*[#  17]
          
    |psi|^2 = 0.546
==== e(  25) =    12.24121 eV ==== 
     psi = 0.131*[#  12]+0.020*[#  13]+0.011*[#   1]+0.011*[#  18]+0.004*[#   5]
          +0.002*[#   9]+0.002*[#   6]+0.001*[#   4]+0.001*[#  21]
    |psi|^2 = 0.185
==== e(  26) =    12.80609 eV ==== 
     psi = 0.013*[#  15]+0.008*[#   4]+0.008*[#  21]+0.008*[#  10]
    |psi|^2 = 0.038
==== e(  27) =    13.79074 eV ==== 
     psi = 0.010*[#  14]+0.006*[#   3]+0.006*[#  20]
    |psi|^2 = 0.021
==== e(  28) =    13.95030 eV ==== 
     psi = 0.008*[#  16]+0.006*[#   6]+0.004*[#  12]+0.003*[#  13]+0.003*[#   1]
          +0.003*[#  18]+0.003*[#   2]+0.003*[#  19]
    |psi|^2 = 0.032
==== e(  29) =    15.74132 eV ==== 
     psi = 0.011*[#  15]+0.004*[#  10]
    |psi|^2 = 0.018
==== e(  30) =    16.66975 eV ==== 
     psi = 0.026*[#  10]+0.008*[#   1]+0.008*[#  18]+0.005*[#  15]
    |psi|^2 = 0.048

 k =   0.0000000000  0.1347150628  0.1262000000
==== e(   1) =   -53.60201 eV ==== 
     psi = 0.925*[#   5]+0.050*[#  12]+0.008*[#   2]+0.008*[#  19]+0.002*[#   6]
          +0.001*[#  13]+0.001*[#   4]+0.001*[#  21]
    |psi|^2 = 1.000
==== e(   2) =   -29.82510 eV ==== 
     psi = 0.970*[#   7]+0.008*[#  10]+0.006*[#   1]+0.006*[#  18]+0.004*[#   2]
          +0.004*[#  19]+0.001*[#   4]+0.001*[#  21]
    |psi|^2 = 1.000
==== e(   3) =   -29.66013 eV ==== 
     psi = 0.975*[#   9]+0.009*[#  12]+0.008*[#   6]+0.001*[#   4]+0.001*[#  21]
          +0.001*[#   2]+0.001*[#  19]
    |psi|^2 = 1.000
==== e(   4) =   -29.61289 eV ==== 
     psi = 0.970*[#   8]+0.026*[#  11]+0.002*[#   3]+0.002*[#  20]
    |psi|^2 = 1.000
==== e(   5) =   -12.37065 eV ==== 
     psi = 0.286*[#   1]+0.286*[#  18]+0.282*[#   6]+0.100*[#  12]+0.022*[#   5]
          +0.006*[#   2]+0.006*[#  19]+0.004*[#  16]+0.003*[#   4]+0.003*[#   9]
          +0.003*[#  21]
    |psi|^2 = 0.999
==== e(   6) =   -11.12637 eV ==== 
     psi = 0.319*[#   1]+0.319*[#  10]+0.319*[#  18]+0.021*[#   7]+0.018*[#  15]
          
    |psi|^2 = 0.999
==== e(   7) =    -3.96097 eV ==== 
     psi = 0.286*[#   2]+0.286*[#  19]+0.283*[#  13]+0.031*[#   1]+0.031*[#  18]
          +0.023*[#   6]+0.016*[#   5]+0.014*[#  16]+0.004*[#   4]+0.004*[#  21]
          +0.003*[#   9]+0.003*[#  12]
    |psi|^2 = 0.986
==== e(   8) =    -1.73620 eV ==== 
     psi = 0.499*[#  16]+0.207*[#   4]+0.207*[#  21]+0.035*[#   6]+0.012*[#   1]
          +0.012*[#  18]+0.007*[#  12]+0.003*[#   2]+0.003*[#  19]+0.002*[#   5]
          +0.002*[#  13]
    |psi|^2 = 0.989
==== e(   9) =    -1.10166 eV ==== 
     psi = 0.534*[#  17]+0.221*[#   3]+0.221*[#  20]+0.013*[#  11]+0.001*[#   8]
          
    |psi|^2 = 0.991
==== e(  10) =    -1.09700 eV ==== 
     psi = 0.285*[#  15]+0.188*[#   2]+0.188*[#  19]+0.148*[#   4]+0.148*[#  21]
          +0.032*[#  10]+0.001*[#   1]+0.001*[#  18]
    |psi|^2 = 0.992
==== e(  11) =    -0.46034 eV ==== 
     psi = 0.443*[#  14]+0.272*[#   3]+0.272*[#  20]
    |psi|^2 = 0.988
==== e(  12) =     0.20915 eV ==== 
     psi = 0.283*[#   2]+0.283*[#  19]+0.169*[#   4]+0.169*[#  21]+0.072*[#  15]
          +0.008*[#   7]
    |psi|^2 = 0.987
==== e(  13) =     1.72338 eV ==== 
     psi = 0.586*[#  13]+0.131*[#   2]+0.131*[#  19]+0.057*[#  16]+0.021*[#   4]
          +0.021*[#  21]+0.017*[#  12]+0.006*[#   1]+0.006*[#  18]+0.002*[#   6]
          
    |psi|^2 = 0.977
==== e(  14) =     4.05833 eV ==== 
     psi = 0.382*[#  16]+0.220*[#   4]+0.220*[#  21]+0.047*[#  13]+0.027*[#   2]
          +0.027*[#  19]+0.007*[#   6]+0.007*[#   1]+0.007*[#  18]
    |psi|^2 = 0.946
==== e(  15) =     4.07636 eV ==== 
     psi = 0.571*[#  15]+0.141*[#   4]+0.141*[#  21]+0.030*[#   1]+0.030*[#  18]
          +0.020*[#  10]+0.011*[#   2]+0.011*[#  19]
    |psi|^2 = 0.954
==== e(  16) =     4.24812 eV ==== 
     psi = 0.438*[#  17]+0.261*[#   3]+0.261*[#  20]+0.018*[#  11]
    |psi|^2 = 0.979
==== e(  17) =     4.55374 eV ==== 
     psi = 0.522*[#  14]+0.220*[#   3]+0.220*[#  20]
    |psi|^2 = 0.962
==== e(  18) =     6.96244 eV ==== 
     psi = 0.103*[#  10]+0.020*[#   1]+0.020*[#  18]+0.006*[#  15]+0.003*[#   4]
          +0.003*[#  21]+0.002*[#   2]+0.002*[#  19]
    |psi|^2 = 0.160
==== e(  19) =     7.18823 eV ==== 
     psi = 0.257*[#   6]+0.144*[#  12]+0.114*[#   1]+0.114*[#  18]+0.033*[#  13]
          +0.024*[#   4]+0.024*[#  21]+0.020*[#   2]+0.020*[#  19]+0.003*[#   5]
          
    |psi|^2 = 0.752
==== e(  20) =     7.93830 eV ==== 
     psi = 0.062*[#   6]+0.016*[#  16]+0.015*[#   1]+0.015*[#  18]+0.015*[#  13]
          +0.006*[#   2]+0.006*[#  19]+0.003*[#  12]
    |psi|^2 = 0.140
==== e(  21) =     9.88825 eV ==== 
     psi = 0.232*[#  10]+0.050*[#   1]+0.050*[#  18]+0.006*[#   4]+0.006*[#  21]
          +0.004*[#   2]+0.004*[#  19]+0.003*[#  15]
    |psi|^2 = 0.356
==== e(  22) =    10.37186 eV ==== 
     psi = 0.218*[#  10]+0.057*[#   1]+0.057*[#  18]+0.018*[#   4]+0.018*[#  21]
          +0.005*[#   2]+0.005*[#  19]+0.004*[#  15]
    |psi|^2 = 0.382
==== e(  23) =    11.07498 eV ==== 
     psi = 0.243*[#  12]+0.181*[#   6]+0.014*[#   5]+0.013*[#   4]+0.013*[#  21]
          +0.007*[#   9]+0.005*[#   2]+0.005*[#  19]+0.002*[#  16]+0.001*[#   1]
          +0.001*[#  18]
    |psi|^2 = 0.484
==== e(  24) =    12.24609 eV ==== 
     psi = 0.489*[#  11]+0.014*[#   8]+0.013*[#   3]+0.013*[#  20]+0.004*[#  17]
          
    |psi|^2 = 0.533
==== e(  25) =    12.30807 eV ==== 
     psi = 0.128*[#  12]+0.021*[#  13]+0.010*[#   1]+0.010*[#  18]+0.005*[#   5]
          +0.003*[#   6]+0.002*[#   9]+0.001*[#   4]+0.001*[#  16]+0.001*[#  21]
          
    |psi|^2 = 0.184
==== e(  26) =    12.58654 eV ==== 
     psi = 0.014*[#  10]+0.013*[#  15]+0.009*[#   4]+0.009*[#  21]+0.002*[#   1]
          +0.002*[#  18]
    |psi|^2 = 0.048
==== e(  27) =    13.79792 eV ==== 
     psi = 0.009*[#  14]+0.005*[#   3]+0.005*[#  20]
    |psi|^2 = 0.019
==== e(  28) =    13.89377 eV ==== 
     psi = 0.009*[#  16]+0.005*[#   6]+0.004*[#  12]+0.004*[#  13]+0.003*[#   1]
          +0.003*[#  18]+0.003*[#   2]+0.003*[#  19]
    |psi|^2 = 0.035
==== e(  29) =    15.58450 eV ==== 
     psi = 0.013*[#  15]+0.002*[#  10]
    |psi|^2 = 0.017
==== e(  30) =    16.54697 eV ==== 
     psi = 0.063*[#  11]+0.020*[#  17]+0.002*[#   8]
    |psi|^2 = 0.085

 k =   0.0000000000  0.1539600718  0.1262000000
==== e(   1) =   -53.60032 eV ==== 
     psi = 0.919*[#   5]+0.058*[#  12]+0.008*[#   2]+0.008*[#  19]+0.001*[#   4]
          +0.001*[#  21]+0.001*[#  13]
    |psi|^2 = 1.000
==== e(   2) =   -29.82140 eV ==== 
     psi = 0.971*[#   7]+0.007*[#  10]+0.006*[#   1]+0.006*[#  18]+0.004*[#   2]
          +0.004*[#  19]+0.002*[#   4]+0.002*[#  21]
    |psi|^2 = 1.000
==== e(   3) =   -29.67746 eV ==== 
     psi = 0.976*[#   9]+0.009*[#   6]+0.006*[#  12]+0.001*[#   2]+0.001*[#   4]
          +0.001*[#  19]+0.001*[#  21]
    |psi|^2 = 1.000
==== e(   4) =   -29.61672 eV ==== 
     psi = 0.970*[#   8]+0.025*[#  11]+0.002*[#   3]+0.002*[#  20]
    |psi|^2 = 1.000
==== e(   5) =   -12.31619 eV ==== 
     psi = 0.285*[#   1]+0.285*[#  18]+0.261*[#   6]+0.120*[#  12]+0.022*[#   5]
          +0.006*[#   2]+0.006*[#  19]+0.005*[#  16]+0.003*[#   9]+0.003*[#   4]
          +0.003*[#  21]
    |psi|^2 = 0.999
==== e(   6) =   -11.11066 eV ==== 
     psi = 0.322*[#   1]+0.322*[#  18]+0.308*[#  10]+0.024*[#  15]+0.020*[#   7]
          +0.001*[#   4]+0.001*[#  21]
    |psi|^2 = 0.999
==== e(   7) =    -3.90281 eV ==== 
     psi = 0.287*[#   2]+0.287*[#  19]+0.275*[#  13]+0.030*[#   1]+0.030*[#  18]
          +0.021*[#   6]+0.021*[#  16]+0.015*[#   5]+0.006*[#   4]+0.006*[#  21]
          +0.004*[#   9]+0.003*[#  12]
    |psi|^2 = 0.986
==== e(   8) =    -1.84852 eV ==== 
     psi = 0.474*[#  16]+0.208*[#   4]+0.208*[#  21]+0.042*[#   6]+0.015*[#   1]
          +0.015*[#  18]+0.009*[#  12]+0.004*[#   2]+0.004*[#  19]+0.003*[#  13]
          +0.003*[#   5]+0.001*[#   9]
    |psi|^2 = 0.989
==== e(   9) =    -1.22385 eV ==== 
     psi = 0.292*[#  15]+0.171*[#   2]+0.171*[#  19]+0.159*[#   4]+0.159*[#  21]
          +0.036*[#  10]+0.001*[#   1]+0.001*[#  18]
    |psi|^2 = 0.992
==== e(  10) =    -1.04720 eV ==== 
     psi = 0.520*[#  17]+0.226*[#   3]+0.226*[#  20]+0.016*[#  11]+0.001*[#   8]
          
    |psi|^2 = 0.991
==== e(  11) =    -0.53736 eV ==== 
     psi = 0.444*[#  14]+0.272*[#   3]+0.272*[#  20]
    |psi|^2 = 0.989
==== e(  12) =     0.22145 eV ==== 
     psi = 0.295*[#   2]+0.295*[#  19]+0.168*[#   4]+0.168*[#  21]+0.049*[#  15]
          +0.008*[#   7]+0.001*[#   1]+0.001*[#  18]
    |psi|^2 = 0.987
==== e(  13) =     1.66047 eV ==== 
     psi = 0.571*[#  13]+0.121*[#   2]+0.121*[#  19]+0.078*[#  16]+0.027*[#   4]
          +0.027*[#  21]+0.018*[#  12]+0.007*[#   1]+0.007*[#  18]+0.003*[#   6]
          
    |psi|^2 = 0.980
==== e(  14) =     4.00013 eV ==== 
     psi = 0.372*[#  16]+0.205*[#   4]+0.205*[#  21]+0.066*[#  13]+0.034*[#   2]
          +0.034*[#  19]+0.008*[#   1]+0.008*[#  18]+0.006*[#   6]+0.001*[#   9]
          
    |psi|^2 = 0.939
==== e(  15) =     4.08220 eV ==== 
     psi = 0.579*[#  15]+0.125*[#   4]+0.125*[#  21]+0.035*[#   1]+0.035*[#  18]
          +0.023*[#  10]+0.015*[#   2]+0.015*[#  19]
    |psi|^2 = 0.952
==== e(  16) =     4.20930 eV ==== 
     psi = 0.451*[#  17]+0.254*[#   3]+0.254*[#  20]+0.017*[#  11]
    |psi|^2 = 0.978
==== e(  17) =     4.65053 eV ==== 
     psi = 0.522*[#  14]+0.221*[#   3]+0.221*[#  20]
    |psi|^2 = 0.964
==== e(  18) =     7.03696 eV ==== 
     psi = 0.105*[#  10]+0.019*[#   1]+0.019*[#  18]+0.007*[#  15]+0.004*[#   4]
          +0.004*[#  21]+0.003*[#   2]+0.003*[#  19]
    |psi|^2 = 0.162
==== e(  19) =     7.34261 eV ==== 
     psi = 0.202*[#   6]+0.160*[#  12]+0.103*[#   1]+0.103*[#  18]+0.038*[#  13]
          +0.026*[#   4]+0.026*[#  21]+0.017*[#   2]+0.017*[#  19]+0.003*[#   5]
          +0.001*[#  16]
    |psi|^2 = 0.696
==== e(  20) =     8.09865 eV ==== 
     psi = 0.089*[#   6]+0.025*[#   1]+0.025*[#  18]+0.019*[#  16]+0.011*[#  12]
          +0.010*[#  13]+0.009*[#   2]+0.009*[#  19]+0.002*[#   4]+0.002*[#  21]
          
    |psi|^2 = 0.201
==== e(  21) =     9.94539 eV ==== 
     psi = 0.203*[#  10]+0.040*[#   1]+0.040*[#  18]+0.005*[#   4]+0.005*[#  21]
          +0.004*[#   2]+0.004*[#  19]+0.003*[#  15]
    |psi|^2 = 0.304
==== e(  22) =    10.55258 eV ==== 
     psi = 0.237*[#  10]+0.057*[#   1]+0.057*[#  18]+0.022*[#   4]+0.022*[#  21]
          +0.006*[#  15]+0.005*[#   2]+0.005*[#  19]
    |psi|^2 = 0.411
==== e(  23) =    10.96172 eV ==== 
     psi = 0.218*[#  12]+0.207*[#   6]+0.016*[#   5]+0.014*[#   4]+0.014*[#  21]
          +0.006*[#   9]+0.005*[#   2]+0.005*[#  19]+0.001*[#   1]+0.001*[#  16]
          +0.001*[#  18]
    |psi|^2 = 0.489
==== e(  24) =    12.37109 eV ==== 
     psi = 0.123*[#  12]+0.021*[#  13]+0.010*[#   1]+0.010*[#  18]+0.005*[#   5]
          +0.004*[#   6]+0.002*[#  16]+0.002*[#   4]+0.002*[#  21]+0.002*[#   9]
          
    |psi|^2 = 0.183
==== e(  25) =    12.38854 eV ==== 
     psi = 0.025*[#  10]+0.013*[#  15]+0.010*[#   4]+0.010*[#  21]+0.003*[#   1]
          +0.003*[#  18]
    |psi|^2 = 0.065
==== e(  26) =    12.40735 eV ==== 
     psi = 0.475*[#  11]+0.014*[#   8]+0.014*[#   3]+0.014*[#  20]+0.004*[#  17]
          
    |psi|^2 = 0.520
==== e(  27) =    13.81184 eV ==== 
     psi = 0.008*[#  14]+0.005*[#   3]+0.005*[#  20]
    |psi|^2 = 0.017
==== e(  28) =    13.82248 eV ==== 
     psi = 0.011*[#  16]+0.005*[#  12]+0.004*[#  13]+0.004*[#   6]+0.003*[#   1]
          +0.003*[#   2]+0.003*[#  18]+0.003*[#  19]
    |psi|^2 = 0.036
==== e(  29) =    15.41623 eV ==== 
     psi = 0.014*[#  15]+0.001*[#   2]+0.001*[#  19]
    |psi|^2 = 0.018
==== e(  30) =    16.36530 eV ==== 
     psi = 0.074*[#  11]+0.021*[#  17]+0.002*[#   8]
    |psi|^2 = 0.097

 k =   0.0000000000  0.1732050808  0.1262000000
==== e(   1) =   -53.59846 eV ==== 
     psi = 0.914*[#   5]+0.065*[#  12]+0.008*[#   2]+0.008*[#  19]+0.002*[#   4]
          +0.002*[#  21]+0.001*[#  13]
    |psi|^2 = 1.000
==== e(   2) =   -29.81733 eV ==== 
     psi = 0.971*[#   7]+0.006*[#  10]+0.005*[#   1]+0.005*[#  18]+0.003*[#   2]
          +0.003*[#  19]+0.002*[#   4]+0.002*[#  21]
    |psi|^2 = 1.000
==== e(   3) =   -29.69645 eV ==== 
     psi = 0.976*[#   9]+0.010*[#   6]+0.004*[#  12]+0.002*[#   2]+0.002*[#  19]
          +0.001*[#   4]+0.001*[#  21]+0.001*[#   1]+0.001*[#  18]+0.001*[#  13]
          
    |psi|^2 = 1.000
==== e(   4) =   -29.62090 eV ==== 
     psi = 0.970*[#   8]+0.025*[#  11]+0.003*[#   3]+0.003*[#  20]
    |psi|^2 = 1.000
==== e(   5) =   -12.25575 eV ==== 
     psi = 0.284*[#   1]+0.284*[#  18]+0.241*[#   6]+0.138*[#  12]+0.022*[#   5]
          +0.007*[#  16]+0.005*[#   2]+0.005*[#  19]+0.004*[#   9]+0.003*[#   4]
          +0.003*[#  21]+0.001*[#  13]
    |psi|^2 = 0.999
==== e(   6) =   -11.09322 eV ==== 
     psi = 0.325*[#   1]+0.325*[#  18]+0.296*[#  10]+0.030*[#  15]+0.019*[#   7]
          +0.001*[#   4]+0.001*[#  21]
    |psi|^2 = 0.999
==== e(   7) =    -3.84131 eV ==== 
     psi = 0.286*[#   2]+0.286*[#  19]+0.267*[#  13]+0.031*[#  16]+0.028*[#   1]
          +0.028*[#  18]+0.019*[#   6]+0.014*[#   5]+0.009*[#   4]+0.009*[#  21]
          +0.004*[#   9]+0.004*[#  12]
    |psi|^2 = 0.986
==== e(   8) =    -1.96418 eV ==== 
     psi = 0.446*[#  16]+0.209*[#   4]+0.209*[#  21]+0.050*[#   6]+0.019*[#   1]
          +0.019*[#  18]+0.012*[#  12]+0.007*[#   2]+0.007*[#  19]+0.005*[#  13]
          +0.004*[#   5]+0.001*[#   9]
    |psi|^2 = 0.989
==== e(   9) =    -1.35183 eV ==== 
     psi = 0.295*[#  15]+0.171*[#   4]+0.171*[#  21]+0.156*[#   2]+0.156*[#  19]
          +0.040*[#  10]+0.002*[#   1]+0.002*[#  18]
    |psi|^2 = 0.992
==== e(  10) =    -0.98726 eV ==== 
     psi = 0.504*[#  17]+0.233*[#   3]+0.233*[#  20]+0.019*[#  11]+0.002*[#   8]
          
    |psi|^2 = 0.991
==== e(  11) =    -0.61852 eV ==== 
     psi = 0.444*[#  14]+0.272*[#   3]+0.272*[#  20]
    |psi|^2 = 0.989
==== e(  12) =     0.21974 eV ==== 
     psi = 0.305*[#   2]+0.305*[#  19]+0.166*[#   4]+0.166*[#  21]+0.030*[#  15]
          +0.009*[#   7]+0.002*[#   1]+0.002*[#  18]+0.001*[#  10]
    |psi|^2 = 0.987
==== e(  13) =     1.58598 eV ==== 
     psi = 0.554*[#  13]+0.111*[#   2]+0.111*[#  19]+0.102*[#  16]+0.034*[#   4]
          +0.034*[#  21]+0.019*[#  12]+0.008*[#   1]+0.008*[#  18]+0.004*[#   6]
          
    |psi|^2 = 0.982
==== e(  14) =     3.95220 eV ==== 
     psi = 0.360*[#  16]+0.190*[#   4]+0.190*[#  21]+0.090*[#  13]+0.041*[#   2]
          +0.041*[#  19]+0.008*[#   1]+0.008*[#  18]+0.005*[#   6]+0.001*[#   9]
          
    |psi|^2 = 0.934
==== e(  15) =     4.10210 eV ==== 
     psi = 0.585*[#  15]+0.110*[#   4]+0.110*[#  21]+0.040*[#   1]+0.040*[#  18]
          +0.026*[#  10]+0.021*[#   2]+0.021*[#  19]
    |psi|^2 = 0.951
==== e(  16) =     4.16987 eV ==== 
     psi = 0.467*[#  17]+0.247*[#   3]+0.247*[#  20]+0.016*[#  11]
    |psi|^2 = 0.977
==== e(  17) =     4.75228 eV ==== 
     psi = 0.523*[#  14]+0.221*[#   3]+0.221*[#  20]
    |psi|^2 = 0.965
==== e(  18) =     7.12038 eV ==== 
     psi = 0.107*[#  10]+0.017*[#   1]+0.017*[#  18]+0.008*[#  15]+0.004*[#   4]
          +0.004*[#  21]+0.003*[#   2]+0.003*[#  19]
    |psi|^2 = 0.164
==== e(  19) =     7.48358 eV ==== 
     psi = 0.170*[#  12]+0.151*[#   6]+0.090*[#   1]+0.090*[#  18]+0.043*[#  13]
          +0.026*[#   4]+0.026*[#  21]+0.015*[#   2]+0.015*[#  19]+0.004*[#   5]
          +0.002*[#  16]
    |psi|^2 = 0.631
==== e(  20) =     8.29136 eV ==== 
     psi = 0.114*[#   6]+0.036*[#   1]+0.036*[#  18]+0.024*[#  12]+0.023*[#  16]
          +0.012*[#   2]+0.012*[#  19]+0.006*[#  13]+0.004*[#   4]+0.004*[#  21]
          
    |psi|^2 = 0.271
==== e(  21) =     9.99955 eV ==== 
     psi = 0.182*[#  10]+0.034*[#   1]+0.034*[#  18]+0.005*[#   4]+0.005*[#  21]
          +0.003*[#   2]+0.003*[#  19]+0.003*[#  15]
    |psi|^2 = 0.269
==== e(  22) =    10.72046 eV ==== 
     psi = 0.237*[#  10]+0.053*[#   1]+0.053*[#  18]+0.024*[#   4]+0.024*[#  21]
          +0.009*[#  15]+0.005*[#   2]+0.005*[#  19]
    |psi|^2 = 0.409
==== e(  23) =    10.85119 eV ==== 
     psi = 0.231*[#   6]+0.197*[#  12]+0.018*[#   5]+0.015*[#   4]+0.015*[#  21]
          +0.006*[#   2]+0.006*[#  19]+0.005*[#   9]+0.001*[#   1]+0.001*[#  18]
          
    |psi|^2 = 0.497
==== e(  24) =    12.23002 eV ==== 
     psi = 0.045*[#  10]+0.013*[#  15]+0.012*[#   4]+0.012*[#  21]+0.006*[#   1]
          +0.006*[#  18]
    |psi|^2 = 0.096
==== e(  25) =    12.42624 eV ==== 
     psi = 0.118*[#  12]+0.021*[#  13]+0.010*[#   1]+0.010*[#  18]+0.006*[#   5]
          +0.005*[#   6]+0.004*[#  16]+0.002*[#   4]+0.002*[#  21]+0.001*[#   9]
          
    |psi|^2 = 0.180
==== e(  26) =    12.58337 eV ==== 
     psi = 0.463*[#  11]+0.014*[#   3]+0.014*[#  20]+0.014*[#   8]+0.003*[#  17]
          
    |psi|^2 = 0.508
==== e(  27) =    13.74017 eV ==== 
     psi = 0.012*[#  16]+0.006*[#  12]+0.005*[#  13]+0.003*[#   6]+0.003*[#   1]
          +0.003*[#   2]+0.003*[#  18]+0.003*[#  19]
    |psi|^2 = 0.038
==== e(  28) =    13.83431 eV ==== 
     psi = 0.006*[#  14]+0.004*[#   3]+0.004*[#  20]
    |psi|^2 = 0.015
==== e(  29) =    15.24731 eV ==== 
     psi = 0.014*[#  15]+0.001*[#  10]+0.001*[#   2]+0.001*[#  19]
    |psi|^2 = 0.021
==== e(  30) =    16.17335 eV ==== 
     psi = 0.083*[#  11]+0.022*[#  17]+0.002*[#   8]
    |psi|^2 = 0.108

 k =   0.0000000000  0.1924500897  0.1262000000
==== e(   1) =   -53.59646 eV ==== 
     psi = 0.910*[#   5]+0.071*[#  12]+0.007*[#   2]+0.007*[#  19]+0.002*[#   4]
          +0.002*[#  21]
    |psi|^2 = 1.000
==== e(   2) =   -29.81295 eV ==== 
     psi = 0.972*[#   7]+0.005*[#   1]+0.005*[#  18]+0.005*[#  10]+0.003*[#   2]
          +0.003*[#  19]+0.003*[#   4]+0.003*[#  21]
    |psi|^2 = 1.000
==== e(   3) =   -29.71690 eV ==== 
     psi = 0.976*[#   9]+0.011*[#   6]+0.002*[#   2]+0.002*[#  19]+0.002*[#  12]
          +0.001*[#   4]+0.001*[#  21]+0.001*[#   1]+0.001*[#  18]+0.001*[#  13]
          
    |psi|^2 = 1.000
==== e(   4) =   -29.62544 eV ==== 
     psi = 0.970*[#   8]+0.024*[#  11]+0.003*[#   3]+0.003*[#  20]
    |psi|^2 = 1.000
==== e(   5) =   -12.18980 eV ==== 
     psi = 0.284*[#   1]+0.284*[#  18]+0.221*[#   6]+0.155*[#  12]+0.022*[#   5]
          +0.009*[#  16]+0.005*[#   9]+0.005*[#   2]+0.005*[#  19]+0.004*[#   4]
          +0.004*[#  21]+0.001*[#  13]
    |psi|^2 = 0.999
==== e(   6) =   -11.07419 eV ==== 
     psi = 0.329*[#   1]+0.329*[#  18]+0.282*[#  10]+0.037*[#  15]+0.018*[#   7]
          +0.002*[#   4]+0.002*[#  21]
    |psi|^2 = 0.999
==== e(   7) =    -3.77870 eV ==== 
     psi = 0.285*[#   2]+0.285*[#  19]+0.256*[#  13]+0.045*[#  16]+0.026*[#   1]
          +0.026*[#  18]+0.017*[#   6]+0.013*[#   4]+0.013*[#  21]+0.013*[#   5]
          +0.005*[#   9]+0.004*[#  12]
    |psi|^2 = 0.986
==== e(   8) =    -2.07988 eV ==== 
     psi = 0.413*[#  16]+0.209*[#   4]+0.209*[#  21]+0.058*[#   6]+0.023*[#   1]
          +0.023*[#  18]+0.016*[#  12]+0.012*[#   2]+0.012*[#  19]+0.008*[#  13]
          +0.005*[#   5]+0.002*[#   9]
    |psi|^2 = 0.989
==== e(   9) =    -1.48053 eV ==== 
     psi = 0.295*[#  15]+0.183*[#   4]+0.183*[#  21]+0.142*[#   2]+0.142*[#  19]
          +0.044*[#  10]+0.002*[#   1]+0.002*[#  18]
    |psi|^2 = 0.991
==== e(  10) =    -0.92255 eV ==== 
     psi = 0.485*[#  17]+0.241*[#   3]+0.241*[#  20]+0.023*[#  11]+0.002*[#   8]
          
    |psi|^2 = 0.991
==== e(  11) =    -0.70243 eV ==== 
     psi = 0.445*[#  14]+0.272*[#   3]+0.272*[#  20]
    |psi|^2 = 0.989
==== e(  12) =     0.20520 eV ==== 
     psi = 0.313*[#   2]+0.313*[#  19]+0.163*[#   4]+0.163*[#  21]+0.017*[#  15]
          +0.009*[#   7]+0.004*[#   1]+0.004*[#  18]+0.002*[#  10]
    |psi|^2 = 0.987
==== e(  13) =     1.50067 eV ==== 
     psi = 0.534*[#  13]+0.130*[#  16]+0.100*[#   2]+0.100*[#  19]+0.040*[#   4]
          +0.040*[#  21]+0.019*[#  12]+0.008*[#   1]+0.008*[#  18]+0.005*[#   6]
          
    |psi|^2 = 0.984
==== e(  14) =     3.91668 eV ==== 
     psi = 0.346*[#  16]+0.176*[#   4]+0.176*[#  21]+0.116*[#  13]+0.048*[#   2]
          +0.048*[#  19]+0.007*[#   1]+0.007*[#  18]+0.004*[#   6]+0.002*[#  12]
          +0.001*[#   9]
    |psi|^2 = 0.930
==== e(  15) =     4.13103 eV ==== 
     psi = 0.484*[#  17]+0.238*[#   3]+0.238*[#  20]+0.016*[#  11]
    |psi|^2 = 0.976
==== e(  16) =     4.13670 eV ==== 
     psi = 0.588*[#  15]+0.096*[#   4]+0.096*[#  21]+0.044*[#   1]+0.044*[#  18]
          +0.028*[#  10]+0.027*[#   2]+0.027*[#  19]
    |psi|^2 = 0.949
==== e(  17) =     4.85698 eV ==== 
     psi = 0.523*[#  14]+0.222*[#   3]+0.222*[#  20]
    |psi|^2 = 0.967
==== e(  18) =     7.21240 eV ==== 
     psi = 0.110*[#  10]+0.016*[#   1]+0.016*[#  18]+0.009*[#  15]+0.005*[#   4]
          +0.005*[#  21]+0.003*[#   2]+0.003*[#  19]
    |psi|^2 = 0.166
==== e(  19) =     7.60947 eV ==== 
     psi = 0.175*[#  12]+0.112*[#   6]+0.078*[#   1]+0.078*[#  18]+0.045*[#  13]
          +0.025*[#   4]+0.025*[#  21]+0.013*[#   2]+0.013*[#  19]+0.005*[#   5]
          +0.003*[#  16]
    |psi|^2 = 0.570
==== e(  20) =     8.51155 eV ==== 
     psi = 0.132*[#   6]+0.046*[#   1]+0.046*[#  18]+0.040*[#  12]+0.026*[#  16]
          +0.015*[#   2]+0.015*[#  19]+0.006*[#   4]+0.006*[#  21]+0.004*[#  13]
          
    |psi|^2 = 0.336
==== e(  21) =    10.04818 eV ==== 
     psi = 0.165*[#  10]+0.028*[#   1]+0.028*[#  18]+0.004*[#   4]+0.004*[#  21]
          +0.003*[#   2]+0.003*[#  19]+0.002*[#  15]
    |psi|^2 = 0.239
==== e(  22) =    10.74536 eV ==== 
     psi = 0.253*[#   6]+0.180*[#  12]+0.021*[#   5]+0.017*[#   4]+0.017*[#  21]
          +0.007*[#   2]+0.007*[#  19]+0.005*[#   9]+0.001*[#   1]+0.001*[#  18]
          
    |psi|^2 = 0.508
==== e(  23) =    10.84969 eV ==== 
     psi = 0.219*[#  10]+0.045*[#   1]+0.045*[#  18]+0.024*[#   4]+0.024*[#  21]
          +0.013*[#  15]+0.004*[#   2]+0.004*[#  19]
    |psi|^2 = 0.378
==== e(  24) =    12.13592 eV ==== 
     psi = 0.078*[#  10]+0.016*[#   4]+0.016*[#  21]+0.012*[#  15]+0.011*[#   1]
          +0.011*[#  18]+0.002*[#   2]+0.002*[#  19]
    |psi|^2 = 0.147
==== e(  25) =    12.46888 eV ==== 
     psi = 0.112*[#  12]+0.021*[#  13]+0.009*[#   1]+0.009*[#  18]+0.007*[#   5]
          +0.006*[#   6]+0.005*[#  16]+0.002*[#   4]+0.002*[#  21]+0.001*[#   9]
          
    |psi|^2 = 0.176
==== e(  26) =    12.77064 eV ==== 
     psi = 0.453*[#  11]+0.015*[#   3]+0.015*[#  20]+0.013*[#   8]+0.003*[#  17]
          
    |psi|^2 = 0.500
==== e(  27) =    13.65308 eV ==== 
     psi = 0.012*[#  16]+0.007*[#  12]+0.006*[#  13]+0.003*[#   6]+0.003*[#   1]
          +0.003*[#  18]+0.002*[#   2]+0.002*[#  19]
    |psi|^2 = 0.040
==== e(  28) =    13.86662 eV ==== 
     psi = 0.005*[#  14]+0.004*[#   3]+0.004*[#  20]
    |psi|^2 = 0.013
==== e(  29) =    15.08613 eV ==== 
     psi = 0.015*[#  15]+0.004*[#  10]+0.001*[#   1]+0.001*[#  18]+0.001*[#   2]
          +0.001*[#  19]+0.001*[#   4]+0.001*[#  21]
    |psi|^2 = 0.026
==== e(  30) =    15.97453 eV ==== 
     psi = 0.090*[#  11]+0.023*[#  17]+0.002*[#   8]
    |psi|^2 = 0.117

 k =   0.0000000000  0.2116950987  0.1262000000
==== e(   1) =   -53.59433 eV ==== 
     psi = 0.906*[#   5]+0.075*[#  12]+0.007*[#   2]+0.007*[#  19]+0.002*[#   4]
          +0.002*[#  21]
    |psi|^2 = 1.000
==== e(   2) =   -29.80829 eV ==== 
     psi = 0.972*[#   7]+0.005*[#   1]+0.005*[#  18]+0.004*[#  10]+0.003*[#   2]
          +0.003*[#   4]+0.003*[#  19]+0.003*[#  21]
    |psi|^2 = 1.000
==== e(   3) =   -29.73854 eV ==== 
     psi = 0.976*[#   9]+0.011*[#   6]+0.002*[#   2]+0.002*[#  19]+0.001*[#   1]
          +0.001*[#   4]+0.001*[#  18]+0.001*[#  21]+0.001*[#  13]
    |psi|^2 = 1.000
==== e(   4) =   -29.63027 eV ==== 
     psi = 0.970*[#   8]+0.023*[#  11]+0.003*[#   3]+0.003*[#  20]
    |psi|^2 = 1.000
==== e(   5) =   -12.11886 eV ==== 
     psi = 0.284*[#   1]+0.284*[#  18]+0.202*[#   6]+0.170*[#  12]+0.022*[#   5]
          +0.011*[#  16]+0.006*[#   9]+0.005*[#   2]+0.005*[#  19]+0.004*[#   4]
          +0.004*[#  21]+0.001*[#  13]
    |psi|^2 = 0.999
==== e(   6) =   -11.05373 eV ==== 
     psi = 0.333*[#   1]+0.333*[#  18]+0.268*[#  10]+0.044*[#  15]+0.017*[#   7]
          +0.002*[#   4]+0.002*[#  21]
    |psi|^2 = 0.999
==== e(   7) =    -3.71789 eV ==== 
     psi = 0.280*[#   2]+0.280*[#  19]+0.243*[#  13]+0.064*[#  16]+0.024*[#   1]
          +0.024*[#  18]+0.019*[#   4]+0.019*[#  21]+0.014*[#   6]+0.011*[#   5]
          +0.005*[#   9]+0.003*[#  12]
    |psi|^2 = 0.986
==== e(   8) =    -2.19197 eV ==== 
     psi = 0.373*[#  16]+0.208*[#   4]+0.208*[#  21]+0.065*[#   6]+0.027*[#   1]
          +0.027*[#  18]+0.021*[#  12]+0.019*[#   2]+0.019*[#  19]+0.013*[#  13]
          +0.007*[#   5]+0.002*[#   9]
    |psi|^2 = 0.990
==== e(   9) =    -1.60951 eV ==== 
     psi = 0.293*[#  15]+0.195*[#   4]+0.195*[#  21]+0.128*[#   2]+0.128*[#  19]
          +0.047*[#  10]+0.002*[#   1]+0.002*[#  18]
    |psi|^2 = 0.991
==== e(  10) =    -0.85382 eV ==== 
     psi = 0.465*[#  17]+0.249*[#   3]+0.249*[#  20]+0.026*[#  11]+0.002*[#   8]
          
    |psi|^2 = 0.991
==== e(  11) =    -0.78784 eV ==== 
     psi = 0.445*[#  14]+0.272*[#   3]+0.272*[#  20]
    |psi|^2 = 0.990
==== e(  12) =     0.17958 eV ==== 
     psi = 0.320*[#   2]+0.320*[#  19]+0.159*[#   4]+0.159*[#  21]+0.010*[#   7]
          +0.009*[#  15]+0.005*[#   1]+0.005*[#  18]+0.002*[#  10]
    |psi|^2 = 0.988
==== e(  13) =     1.40632 eV ==== 
     psi = 0.513*[#  13]+0.158*[#  16]+0.090*[#   2]+0.090*[#  19]+0.045*[#   4]
          +0.045*[#  21]+0.019*[#  12]+0.009*[#   1]+0.009*[#  18]+0.005*[#   6]
          
    |psi|^2 = 0.985
==== e(  14) =     3.89467 eV ==== 
     psi = 0.330*[#  16]+0.162*[#   4]+0.162*[#  21]+0.144*[#  13]+0.054*[#   2]
          +0.054*[#  19]+0.007*[#   1]+0.007*[#  18]+0.003*[#   6]+0.003*[#  12]
          +0.001*[#   9]
    |psi|^2 = 0.926
==== e(  15) =     4.09405 eV ==== 
     psi = 0.504*[#  17]+0.228*[#   3]+0.228*[#  20]+0.014*[#  11]
    |psi|^2 = 0.975
==== e(  16) =     4.18563 eV ==== 
     psi = 0.588*[#  15]+0.083*[#   4]+0.083*[#  21]+0.047*[#   1]+0.047*[#  18]
          +0.034*[#   2]+0.034*[#  19]+0.030*[#  10]
    |psi|^2 = 0.947
==== e(  17) =     4.96284 eV ==== 
     psi = 0.523*[#  14]+0.222*[#   3]+0.222*[#  20]
    |psi|^2 = 0.968
==== e(  18) =     7.31263 eV ==== 
     psi = 0.113*[#  10]+0.015*[#   1]+0.015*[#  18]+0.010*[#  15]+0.005*[#   4]
          +0.005*[#  21]+0.003*[#   2]+0.003*[#  19]
    |psi|^2 = 0.169
==== e(  19) =     7.72237 eV ==== 
     psi = 0.177*[#  12]+0.084*[#   6]+0.069*[#   1]+0.069*[#  18]+0.046*[#  13]
          +0.023*[#   4]+0.023*[#  21]+0.011*[#   2]+0.011*[#  19]+0.005*[#   5]
          +0.003*[#  16]
    |psi|^2 = 0.523
==== e(  20) =     8.74936 eV ==== 
     psi = 0.142*[#   6]+0.054*[#  12]+0.053*[#   1]+0.053*[#  18]+0.030*[#  16]
          +0.018*[#   2]+0.018*[#  19]+0.008*[#   4]+0.008*[#  21]+0.002*[#  13]
          
    |psi|^2 = 0.386
==== e(  21) =    10.08570 eV ==== 
     psi = 0.147*[#  10]+0.024*[#   1]+0.024*[#  18]+0.003*[#   4]+0.003*[#  21]
          +0.003*[#   2]+0.003*[#  19]+0.001*[#  15]
    |psi|^2 = 0.208
==== e(  22) =    10.64660 eV ==== 
     psi = 0.272*[#   6]+0.169*[#  12]+0.023*[#   5]+0.019*[#   4]+0.019*[#  21]
          +0.007*[#   2]+0.007*[#  19]+0.004*[#   9]+0.002*[#  13]+0.002*[#   1]
          +0.002*[#  18]
    |psi|^2 = 0.525
==== e(  23) =    10.91742 eV ==== 
     psi = 0.191*[#  10]+0.035*[#   1]+0.035*[#  18]+0.023*[#   4]+0.023*[#  21]
          +0.018*[#  15]+0.004*[#   2]+0.004*[#  19]
    |psi|^2 = 0.331
==== e(  24) =    12.13004 eV ==== 
     psi = 0.122*[#  10]+0.020*[#   4]+0.020*[#  21]+0.018*[#   1]+0.018*[#  18]
          +0.010*[#  15]+0.002*[#   2]+0.002*[#  19]
    |psi|^2 = 0.212
==== e(  25) =    12.49494 eV ==== 
     psi = 0.102*[#  12]+0.020*[#  13]+0.008*[#   1]+0.008*[#  18]+0.007*[#   6]
          +0.007*[#  16]+0.007*[#   5]+0.002*[#   4]+0.002*[#  21]
    |psi|^2 = 0.167
==== e(  26) =    12.96560 eV ==== 
     psi = 0.448*[#  11]+0.016*[#   3]+0.016*[#  20]+0.013*[#   8]+0.003*[#  17]
          
    |psi|^2 = 0.495
==== e(  27) =    13.56866 eV ==== 
     psi = 0.012*[#  16]+0.009*[#  12]+0.007*[#  13]+0.003*[#   6]+0.003*[#   1]
          +0.003*[#  18]+0.002*[#   2]+0.002*[#  19]+0.001*[#   4]+0.001*[#  21]
          
    |psi|^2 = 0.044
==== e(  28) =    13.91016 eV ==== 
     psi = 0.004*[#  14]+0.003*[#   3]+0.003*[#  20]
    |psi|^2 = 0.011
==== e(  29) =    14.94010 eV ==== 
     psi = 0.014*[#  15]+0.008*[#  10]+0.002*[#   1]+0.002*[#  18]+0.002*[#   4]
          +0.002*[#  21]+0.001*[#   2]+0.001*[#  19]
    |psi|^2 = 0.034
==== e(  30) =    15.77395 eV ==== 
     psi = 0.094*[#  11]+0.025*[#  17]+0.002*[#   8]
    |psi|^2 = 0.121

 k =   0.0000000000  0.2309401077  0.1262000000
==== e(   1) =   -53.59210 eV ==== 
     psi = 0.903*[#   5]+0.077*[#  12]+0.006*[#   2]+0.006*[#  19]+0.002*[#   4]
          +0.002*[#  21]
    |psi|^2 = 1.000
==== e(   2) =   -29.80339 eV ==== 
     psi = 0.973*[#   7]+0.005*[#   1]+0.005*[#  18]+0.004*[#   4]+0.004*[#  21]
          +0.003*[#  10]+0.003*[#   2]+0.003*[#  19]
    |psi|^2 = 1.000
==== e(   3) =   -29.76113 eV ==== 
     psi = 0.975*[#   9]+0.011*[#   6]+0.003*[#   2]+0.003*[#  19]+0.002*[#   1]
          +0.002*[#  18]+0.001*[#   4]+0.001*[#  13]+0.001*[#  21]
    |psi|^2 = 1.000
==== e(   4) =   -29.63532 eV ==== 
     psi = 0.971*[#   8]+0.023*[#  11]+0.003*[#   3]+0.003*[#  20]
    |psi|^2 = 1.000
==== e(   5) =   -12.04351 eV ==== 
     psi = 0.285*[#   1]+0.285*[#  18]+0.185*[#   6]+0.183*[#  12]+0.021*[#   5]
          +0.013*[#  16]+0.008*[#   9]+0.005*[#   2]+0.005*[#  19]+0.005*[#   4]
          +0.005*[#  21]+0.001*[#  13]
    |psi|^2 = 0.999
==== e(   6) =   -11.03202 eV ==== 
     psi = 0.337*[#   1]+0.337*[#  18]+0.252*[#  10]+0.052*[#  15]+0.016*[#   7]
          +0.002*[#   4]+0.002*[#  21]
    |psi|^2 = 0.999
==== e(   7) =    -3.66265 eV ==== 
     psi = 0.272*[#   2]+0.272*[#  19]+0.227*[#  13]+0.090*[#  16]+0.027*[#   4]
          +0.027*[#  21]+0.021*[#   1]+0.021*[#  18]+0.011*[#   6]+0.009*[#   5]
          +0.006*[#   9]+0.003*[#  12]
    |psi|^2 = 0.986
==== e(   8) =    -2.29642 eV ==== 
     psi = 0.327*[#  16]+0.206*[#   4]+0.206*[#  21]+0.071*[#   6]+0.032*[#   1]
          +0.032*[#  18]+0.029*[#   2]+0.029*[#  19]+0.027*[#  12]+0.020*[#  13]
          +0.008*[#   5]+0.003*[#   9]
    |psi|^2 = 0.990
==== e(   9) =    -1.73834 eV ==== 
     psi = 0.288*[#  15]+0.208*[#   4]+0.208*[#  21]+0.115*[#   2]+0.115*[#  19]
          +0.051*[#  10]+0.003*[#   1]+0.003*[#  18]
    |psi|^2 = 0.991
==== e(  10) =    -0.87362 eV ==== 
     psi = 0.446*[#  14]+0.272*[#   3]+0.272*[#  20]
    |psi|^2 = 0.990
==== e(  11) =    -0.78189 eV ==== 
     psi = 0.442*[#  17]+0.258*[#   3]+0.258*[#  20]+0.030*[#  11]+0.002*[#   8]
          
    |psi|^2 = 0.991
==== e(  12) =     0.14502 eV ==== 
     psi = 0.325*[#   2]+0.325*[#  19]+0.153*[#   4]+0.153*[#  21]+0.010*[#   7]
          +0.006*[#   1]+0.006*[#  15]+0.006*[#  18]+0.003*[#  10]
    |psi|^2 = 0.988
==== e(  13) =     1.30554 eV ==== 
     psi = 0.493*[#  13]+0.188*[#  16]+0.081*[#   2]+0.081*[#  19]+0.049*[#   4]
          +0.049*[#  21]+0.019*[#  12]+0.009*[#   1]+0.009*[#  18]+0.006*[#   6]
          
    |psi|^2 = 0.985
==== e(  14) =     3.88630 eV ==== 
     psi = 0.315*[#  16]+0.173*[#  13]+0.149*[#   4]+0.149*[#  21]+0.059*[#   2]
          +0.059*[#  19]+0.007*[#   1]+0.007*[#  18]+0.003*[#  12]+0.003*[#   6]
          
    |psi|^2 = 0.925
==== e(  15) =     4.06005 eV ==== 
     psi = 0.525*[#  17]+0.218*[#   3]+0.218*[#  20]+0.013*[#  11]
    |psi|^2 = 0.975
==== e(  16) =     4.24768 eV ==== 
     psi = 0.585*[#  15]+0.073*[#   4]+0.073*[#  21]+0.050*[#   1]+0.050*[#  18]
          +0.041*[#   2]+0.041*[#  19]+0.033*[#  10]
    |psi|^2 = 0.945
==== e(  17) =     5.06818 eV ==== 
     psi = 0.524*[#  14]+0.223*[#   3]+0.223*[#  20]
    |psi|^2 = 0.970
==== e(  18) =     7.42065 eV ==== 
     psi = 0.117*[#  10]+0.014*[#   1]+0.014*[#  18]+0.011*[#  15]+0.005*[#   4]
          +0.005*[#  21]+0.003*[#   2]+0.003*[#  19]
    |psi|^2 = 0.172
==== e(  19) =     7.82530 eV ==== 
     psi = 0.181*[#  12]+0.066*[#   6]+0.063*[#   1]+0.063*[#  18]+0.046*[#  13]
          +0.021*[#   4]+0.021*[#  21]+0.010*[#   2]+0.010*[#  19]+0.006*[#   5]
          +0.004*[#  16]
    |psi|^2 = 0.492
==== e(  20) =     8.99148 eV ==== 
     psi = 0.150*[#   6]+0.063*[#  12]+0.056*[#   1]+0.056*[#  18]+0.034*[#  16]
          +0.020*[#   2]+0.020*[#  19]+0.009*[#   4]+0.009*[#  21]+0.002*[#  13]
          
    |psi|^2 = 0.419
==== e(  21) =    10.10338 eV ==== 
     psi = 0.124*[#  10]+0.019*[#   1]+0.019*[#  18]+0.003*[#   4]+0.003*[#  21]
          +0.002*[#   2]+0.002*[#  19]
    |psi|^2 = 0.172
==== e(  22) =    10.55787 eV ==== 
     psi = 0.285*[#   6]+0.165*[#  12]+0.025*[#   5]+0.022*[#   4]+0.022*[#  21]
          +0.007*[#   2]+0.007*[#  19]+0.003*[#   9]+0.003*[#  13]+0.003*[#   1]
          +0.003*[#  18]
    |psi|^2 = 0.545
==== e(  23) =    10.92827 eV ==== 
     psi = 0.171*[#  10]+0.027*[#   1]+0.027*[#  18]+0.023*[#  15]+0.021*[#   4]
          +0.021*[#  21]+0.003*[#   2]+0.003*[#  19]
    |psi|^2 = 0.297
==== e(  24) =    12.21039 eV ==== 
     psi = 0.158*[#  10]+0.023*[#   4]+0.023*[#  21]+0.022*[#   1]+0.022*[#  18]
          +0.008*[#  15]+0.003*[#   2]+0.003*[#  19]
    |psi|^2 = 0.263
==== e(  25) =    12.50314 eV ==== 
     psi = 0.089*[#  12]+0.018*[#  13]+0.010*[#   6]+0.009*[#  16]+0.007*[#   1]
          +0.007*[#  18]+0.006*[#   5]+0.002*[#   4]+0.002*[#  21]
    |psi|^2 = 0.153
==== e(  26) =    13.16216 eV ==== 
     psi = 0.450*[#  11]+0.016*[#   3]+0.016*[#  20]+0.013*[#   8]+0.002*[#  17]
          
    |psi|^2 = 0.497
==== e(  27) =    13.49308 eV ==== 
     psi = 0.014*[#  12]+0.010*[#  16]+0.009*[#  13]+0.003*[#   1]+0.003*[#   6]
          +0.003*[#  18]+0.002*[#   2]+0.002*[#  19]+0.002*[#   4]+0.002*[#  21]
          
    |psi|^2 = 0.051
==== e(  28) =    13.96610 eV ==== 
     psi = 0.003*[#  14]+0.003*[#   3]+0.003*[#  20]
    |psi|^2 = 0.009
==== e(  29) =    14.81669 eV ==== 
     psi = 0.017*[#  10]+0.014*[#  15]+0.004*[#   1]+0.004*[#  18]+0.003*[#   4]
          +0.003*[#  21]+0.001*[#   2]+0.001*[#  19]
    |psi|^2 = 0.047
==== e(  30) =    15.57791 eV ==== 
     psi = 0.090*[#  11]+0.026*[#  17]+0.002*[#   8]
    |psi|^2 = 0.119

 k =   0.0000000000  0.2501851166  0.1262000000
==== e(   1) =   -53.58979 eV ==== 
     psi = 0.902*[#   5]+0.078*[#  12]+0.006*[#   2]+0.006*[#  19]+0.003*[#   4]
          +0.003*[#  21]+0.002*[#   6]
    |psi|^2 = 1.000
==== e(   2) =   -29.79832 eV ==== 
     psi = 0.974*[#   7]+0.005*[#   1]+0.005*[#  18]+0.004*[#   4]+0.004*[#  21]
          +0.003*[#   2]+0.003*[#  19]+0.002*[#  10]
    |psi|^2 = 1.000
==== e(   3) =   -29.78437 eV ==== 
     psi = 0.974*[#   9]+0.011*[#   6]+0.003*[#   2]+0.003*[#  19]+0.002*[#   1]
          +0.002*[#  18]+0.001*[#   4]+0.001*[#  13]+0.001*[#  21]
    |psi|^2 = 1.000
==== e(   4) =   -29.64053 eV ==== 
     psi = 0.971*[#   8]+0.022*[#  11]+0.003*[#   3]+0.003*[#  20]
    |psi|^2 = 1.000
==== e(   5) =   -11.96437 eV ==== 
     psi = 0.287*[#   1]+0.287*[#  18]+0.193*[#  12]+0.168*[#   6]+0.020*[#   5]
          +0.015*[#  16]+0.009*[#   9]+0.005*[#   2]+0.005*[#   4]+0.005*[#  19]
          +0.005*[#  21]+0.001*[#  13]
    |psi|^2 = 0.999
==== e(   6) =   -11.00926 eV ==== 
     psi = 0.342*[#   1]+0.342*[#  18]+0.236*[#  10]+0.060*[#  15]+0.015*[#   7]
          +0.002*[#   4]+0.002*[#  21]
    |psi|^2 = 0.999
==== e(   7) =    -3.61767 eV ==== 
     psi = 0.259*[#   2]+0.259*[#  19]+0.207*[#  13]+0.123*[#  16]+0.039*[#   4]
          +0.039*[#  21]+0.018*[#   1]+0.018*[#  18]+0.009*[#   6]+0.007*[#   5]
          +0.006*[#   9]+0.002*[#  12]
    |psi|^2 = 0.987
==== e(   8) =    -2.38870 eV ==== 
     psi = 0.272*[#  16]+0.199*[#   4]+0.199*[#  21]+0.077*[#   6]+0.046*[#   2]
          +0.046*[#  19]+0.037*[#   1]+0.037*[#  18]+0.033*[#  12]+0.030*[#  13]
          +0.010*[#   5]+0.004*[#   9]
    |psi|^2 = 0.990
==== e(   9) =    -1.86651 eV ==== 
     psi = 0.281*[#  15]+0.221*[#   4]+0.221*[#  21]+0.103*[#   2]+0.103*[#  19]
          +0.054*[#  10]+0.004*[#   1]+0.004*[#  18]
    |psi|^2 = 0.991
==== e(  10) =    -0.95878 eV ==== 
     psi = 0.446*[#  14]+0.272*[#   3]+0.272*[#  20]
    |psi|^2 = 0.990
==== e(  11) =    -0.70767 eV ==== 
     psi = 0.418*[#  17]+0.269*[#   3]+0.269*[#  20]+0.034*[#  11]+0.002*[#   8]
          
    |psi|^2 = 0.991
==== e(  12) =     0.10378 eV ==== 
     psi = 0.330*[#   2]+0.330*[#  19]+0.146*[#   4]+0.146*[#  21]+0.010*[#   7]
          +0.008*[#   1]+0.008*[#  18]+0.007*[#  15]+0.004*[#  10]
    |psi|^2 = 0.989
==== e(  13) =     1.20162 eV ==== 
     psi = 0.473*[#  13]+0.217*[#  16]+0.073*[#   2]+0.073*[#  19]+0.052*[#   4]
          +0.052*[#  21]+0.020*[#  12]+0.009*[#   1]+0.009*[#  18]+0.007*[#   6]
          
    |psi|^2 = 0.985
==== e(  14) =     3.89095 eV ==== 
     psi = 0.300*[#  16]+0.203*[#  13]+0.137*[#   4]+0.137*[#  21]+0.062*[#   2]
          +0.062*[#  19]+0.006*[#   1]+0.006*[#  18]+0.004*[#  12]+0.003*[#   6]
          
    |psi|^2 = 0.924
==== e(  15) =     4.03012 eV ==== 
     psi = 0.549*[#  17]+0.207*[#   3]+0.207*[#  20]+0.012*[#  11]
    |psi|^2 = 0.975
==== e(  16) =     4.32102 eV ==== 
     psi = 0.580*[#  15]+0.064*[#   4]+0.064*[#  21]+0.052*[#   1]+0.052*[#  18]
          +0.048*[#   2]+0.048*[#  19]+0.035*[#  10]
    |psi|^2 = 0.943
==== e(  17) =     5.17154 eV ==== 
     psi = 0.524*[#  14]+0.223*[#   3]+0.223*[#  20]
    |psi|^2 = 0.971
==== e(  18) =     7.53590 eV ==== 
     psi = 0.121*[#  10]+0.012*[#   1]+0.012*[#  18]+0.011*[#  15]+0.006*[#   4]
          +0.006*[#  21]+0.003*[#   2]+0.003*[#  19]
    |psi|^2 = 0.175
==== e(  19) =     7.92065 eV ==== 
     psi = 0.186*[#  12]+0.058*[#   1]+0.058*[#  18]+0.055*[#   6]+0.044*[#  13]
          +0.020*[#   4]+0.020*[#  21]+0.010*[#   2]+0.010*[#  19]+0.007*[#   5]
          +0.005*[#  16]
    |psi|^2 = 0.473
==== e(  20) =     9.22061 eV ==== 
     psi = 0.160*[#   6]+0.063*[#  12]+0.056*[#   1]+0.056*[#  18]+0.037*[#  16]
          +0.022*[#   2]+0.022*[#  19]+0.009*[#   4]+0.009*[#  21]+0.002*[#  13]
          
    |psi|^2 = 0.437
==== e(  21) =    10.09122 eV ==== 
     psi = 0.095*[#  10]+0.014*[#   1]+0.014*[#  18]+0.002*[#   4]+0.002*[#  21]
          +0.001*[#   2]+0.001*[#  19]
    |psi|^2 = 0.131
==== e(  22) =    10.48433 eV ==== 
     psi = 0.286*[#   6]+0.170*[#  12]+0.026*[#   5]+0.025*[#   4]+0.025*[#  21]
          +0.007*[#   2]+0.007*[#  19]+0.006*[#   1]+0.006*[#  18]+0.005*[#  13]
          +0.003*[#   9]+0.002*[#  16]
    |psi|^2 = 0.570
==== e(  23) =    10.91699 eV ==== 
     psi = 0.173*[#  10]+0.027*[#  15]+0.022*[#   1]+0.022*[#  18]+0.021*[#   4]
          +0.021*[#  21]+0.004*[#   2]+0.004*[#  19]
    |psi|^2 = 0.293
==== e(  24) =    12.34405 eV ==== 
     psi = 0.173*[#  10]+0.024*[#   4]+0.024*[#  21]+0.023*[#   1]+0.023*[#  18]
          +0.008*[#  15]+0.004*[#   2]+0.004*[#  19]
    |psi|^2 = 0.282
==== e(  25) =    12.49857 eV ==== 
     psi = 0.072*[#  12]+0.015*[#  13]+0.014*[#   6]+0.010*[#  16]+0.006*[#   1]
          +0.006*[#  18]+0.006*[#   5]+0.001*[#   4]+0.001*[#  21]
    |psi|^2 = 0.134
==== e(  26) =    13.35110 eV ==== 
     psi = 0.461*[#  11]+0.017*[#   3]+0.017*[#  20]+0.013*[#   8]+0.002*[#  17]
          
    |psi|^2 = 0.509
==== e(  27) =    13.42811 eV ==== 
     psi = 0.021*[#  12]+0.011*[#  13]+0.008*[#  16]+0.004*[#   6]+0.003*[#   1]
          +0.003*[#  18]+0.002*[#   4]+0.002*[#  21]+0.002*[#   2]+0.002*[#  19]
          +0.001*[#   5]
    |psi|^2 = 0.061
==== e(  28) =    14.03536 eV ==== 
     psi = 0.002*[#  14]+0.002*[#   3]+0.002*[#  20]
    |psi|^2 = 0.007
==== e(  29) =    14.72436 eV ==== 
     psi = 0.031*[#  10]+0.013*[#  15]+0.006*[#   1]+0.006*[#  18]+0.005*[#   4]
          +0.005*[#  21]+0.001*[#   2]+0.001*[#  19]
    |psi|^2 = 0.067
==== e(  30) =    15.39659 eV ==== 
     psi = 0.078*[#  11]+0.027*[#  17]+0.002*[#   8]
    |psi|^2 = 0.107

 k =   0.0000000000  0.2694301256  0.1262000000
==== e(   1) =   -53.58742 eV ==== 
     psi = 0.901*[#   5]+0.078*[#  12]+0.005*[#   2]+0.005*[#  19]+0.003*[#   6]
          +0.003*[#   4]+0.003*[#  21]
    |psi|^2 = 1.000
==== e(   2) =   -29.80807 eV ==== 
     psi = 0.973*[#   9]+0.011*[#   6]+0.004*[#   2]+0.004*[#  19]+0.002*[#   1]
          +0.002*[#  18]+0.002*[#   4]+0.002*[#  13]+0.002*[#  21]
    |psi|^2 = 1.000
==== e(   3) =   -29.79312 eV ==== 
     psi = 0.974*[#   7]+0.005*[#   1]+0.005*[#   4]+0.005*[#  18]+0.005*[#  21]
          +0.002*[#   2]+0.002*[#  19]+0.002*[#  10]
    |psi|^2 = 1.000
==== e(   4) =   -29.64585 eV ==== 
     psi = 0.971*[#   8]+0.021*[#  11]+0.003*[#   3]+0.003*[#  20]
    |psi|^2 = 1.000
==== e(   5) =   -11.88214 eV ==== 
     psi = 0.289*[#   1]+0.289*[#  18]+0.201*[#  12]+0.152*[#   6]+0.020*[#   5]
          +0.018*[#  16]+0.010*[#   9]+0.005*[#   4]+0.005*[#  21]+0.005*[#   2]
          +0.005*[#  19]+0.002*[#  13]
    |psi|^2 = 0.999
==== e(   6) =   -10.98564 eV ==== 
     psi = 0.346*[#   1]+0.346*[#  18]+0.218*[#  10]+0.069*[#  15]+0.014*[#   7]
          +0.003*[#   4]+0.003*[#  21]
    |psi|^2 = 0.999
==== e(   7) =    -3.58826 eV ==== 
     psi = 0.238*[#   2]+0.238*[#  19]+0.184*[#  13]+0.165*[#  16]+0.057*[#   4]
          +0.057*[#  21]+0.014*[#   1]+0.014*[#  18]+0.008*[#   6]+0.006*[#   9]
          +0.005*[#   5]
    |psi|^2 = 0.987
==== e(   8) =    -2.46417 eV ==== 
     psi = 0.210*[#  16]+0.189*[#   4]+0.189*[#  21]+0.080*[#   6]+0.069*[#   2]
          +0.069*[#  19]+0.044*[#  13]+0.042*[#   1]+0.042*[#  18]+0.039*[#  12]
          +0.011*[#   5]+0.005*[#   9]
    |psi|^2 = 0.990
==== e(   9) =    -1.99347 eV ==== 
     psi = 0.272*[#  15]+0.234*[#   4]+0.234*[#  21]+0.092*[#   2]+0.092*[#  19]
          +0.057*[#  10]+0.005*[#   1]+0.005*[#  18]+0.001*[#   7]
    |psi|^2 = 0.991
==== e(  10) =    -1.04247 eV ==== 
     psi = 0.446*[#  14]+0.272*[#   3]+0.272*[#  20]
    |psi|^2 = 0.991
==== e(  11) =    -0.63212 eV ==== 
     psi = 0.392*[#  17]+0.280*[#   3]+0.280*[#  20]+0.038*[#  11]+0.002*[#   8]
          
    |psi|^2 = 0.992
==== e(  12) =     0.05811 eV ==== 
     psi = 0.334*[#   2]+0.334*[#  19]+0.139*[#   4]+0.139*[#  21]+0.011*[#  15]
          +0.010*[#   7]+0.009*[#   1]+0.009*[#  18]+0.004*[#  10]
    |psi|^2 = 0.989
==== e(  13) =     1.09827 eV ==== 
     psi = 0.454*[#  13]+0.244*[#  16]+0.067*[#   2]+0.067*[#  19]+0.053*[#   4]
          +0.053*[#  21]+0.021*[#  12]+0.009*[#   1]+0.009*[#  18]+0.007*[#   6]
          
    |psi|^2 = 0.984
==== e(  14) =     3.90753 eV ==== 
     psi = 0.287*[#  16]+0.232*[#  13]+0.127*[#   4]+0.127*[#  21]+0.065*[#   2]
          +0.065*[#  19]+0.006*[#   1]+0.006*[#  18]+0.005*[#  12]+0.004*[#   6]
          
    |psi|^2 = 0.923
==== e(  15) =     4.00518 eV ==== 
     psi = 0.574*[#  17]+0.195*[#   3]+0.195*[#  20]+0.011*[#  11]
    |psi|^2 = 0.974
==== e(  16) =     4.40336 eV ==== 
     psi = 0.574*[#  15]+0.056*[#   4]+0.056*[#  21]+0.055*[#   2]+0.055*[#  19]
          +0.053*[#   1]+0.053*[#  18]+0.037*[#  10]
    |psi|^2 = 0.941
==== e(  17) =     5.27160 eV ==== 
     psi = 0.524*[#  14]+0.224*[#   3]+0.224*[#  20]
    |psi|^2 = 0.972
==== e(  18) =     7.65768 eV ==== 
     psi = 0.125*[#  10]+0.011*[#  15]+0.011*[#   1]+0.011*[#  18]+0.006*[#   4]
          +0.006*[#  21]+0.003*[#   2]+0.003*[#  19]
    |psi|^2 = 0.177
==== e(  19) =     8.00987 eV ==== 
     psi = 0.193*[#  12]+0.055*[#   1]+0.055*[#  18]+0.050*[#   6]+0.042*[#  13]
          +0.018*[#   4]+0.018*[#  21]+0.010*[#   2]+0.010*[#  19]+0.008*[#   5]
          +0.005*[#  16]
    |psi|^2 = 0.464
==== e(  20) =     9.41232 eV ==== 
     psi = 0.185*[#   6]+0.050*[#   1]+0.051*[#  12]+0.050*[#  18]+0.040*[#  16]
          +0.024*[#   2]+0.024*[#  19]+0.008*[#   4]+0.008*[#  21]+0.002*[#  13]
          +0.002*[#   5]
    |psi|^2 = 0.444
==== e(  21) =    10.04435 eV ==== 
     psi = 0.067*[#  10]+0.010*[#   1]+0.010*[#  18]+0.002*[#   4]+0.002*[#  21]
          
    |psi|^2 = 0.095
==== e(  22) =    10.43669 eV ==== 
     psi = 0.265*[#   6]+0.188*[#  12]+0.028*[#   4]+0.028*[#  21]+0.027*[#   5]
          +0.013*[#   1]+0.013*[#  18]+0.008*[#  13]+0.007*[#   2]+0.007*[#  19]
          +0.005*[#  16]+0.002*[#   9]
    |psi|^2 = 0.592
[...]
          +0.072*[#  21]
    |psi|^2 = 0.988
==== e(  12) =     0.02113 eV ==== 
     psi = 0.199*[#   2]+0.199*[#  19]+0.163*[#  15]+0.134*[#   4]+0.134*[#  21]
          +0.055*[#  14]+0.049*[#   3]+0.049*[#  20]+0.004*[#   7]+0.002*[#  10]
          
    |psi|^2 = 0.988
==== e(  13) =     1.86914 eV ==== 
     psi = 0.618*[#  13]+0.158*[#   2]+0.158*[#  19]+0.006*[#  16]+0.005*[#   1]
          +0.005*[#  18]+0.004*[#  12]+0.003*[#   4]+0.003*[#  21]+0.002*[#  17]
          +0.001*[#  11]
    |psi|^2 = 0.965
==== e(  14) =     4.14243 eV ==== 
     psi = 0.386*[#  15]+0.150*[#   4]+0.150*[#  21]+0.147*[#  14]+0.050*[#   3]
          +0.050*[#  20]+0.007*[#   1]+0.007*[#  18]+0.005*[#  10]+0.001*[#   2]
          +0.001*[#  19]
    |psi|^2 = 0.956
==== e(  15) =     4.25668 eV ==== 
     psi = 0.377*[#  14]+0.164*[#   3]+0.164*[#  20]+0.143*[#  15]+0.055*[#   4]
          +0.055*[#  21]
    |psi|^2 = 0.958
==== e(  16) =     4.31905 eV ==== 
     psi = 0.297*[#  16]+0.202*[#   4]+0.202*[#  21]+0.099*[#  17]+0.068*[#   3]
          +0.068*[#  20]+0.007*[#  12]+0.006*[#  13]+0.006*[#   6]+0.005*[#   2]
          +0.005*[#  19]+0.003*[#  11]+0.003*[#   1]+0.003*[#  18]
    |psi|^2 = 0.974
==== e(  17) =     4.37295 eV ==== 
     psi = 0.302*[#  17]+0.210*[#   3]+0.210*[#  20]+0.101*[#  16]+0.070*[#   4]
          +0.070*[#  21]+0.013*[#  11]+0.005*[#  12]
    |psi|^2 = 0.982
==== e(  18) =     6.60152 eV ==== 
     psi = 0.439*[#   6]+0.134*[#   1]+0.134*[#  18]+0.029*[#  12]+0.025*[#   2]
          +0.025*[#  19]+0.017*[#  13]+0.010*[#  11]+0.006*[#   4]+0.006*[#  21]
          +0.002*[#   3]+0.002*[#  20]
    |psi|^2 = 0.829
==== e(  19) =     6.75762 eV ==== 
     psi = 0.102*[#  10]+0.025*[#   1]+0.025*[#  18]+0.002*[#   2]+0.002*[#  19]
          +0.001*[#  15]
    |psi|^2 = 0.160
==== e(  20) =     7.56567 eV ==== 
     psi = 0.027*[#  13]+0.008*[#   6]+0.003*[#  16]+0.001*[#   1]+0.001*[#   2]
          +0.001*[#  18]+0.001*[#  19]
    |psi|^2 = 0.044
==== e(  21) =     9.58823 eV ==== 
     psi = 0.458*[#  10]+0.131*[#   1]+0.131*[#  18]+0.009*[#   2]+0.009*[#  19]
          +0.004*[#   4]+0.004*[#  21]+0.001*[#   3]+0.001*[#  20]+0.001*[#  15]
          
    |psi|^2 = 0.751
==== e(  22) =     9.87107 eV ==== 
     psi = 0.006*[#  10]+0.003*[#   1]+0.003*[#  18]
    |psi|^2 = 0.015
==== e(  23) =    11.50993 eV ==== 
     psi = 0.288*[#  12]+0.097*[#  11]+0.067*[#   6]+0.009*[#   9]+0.007*[#   4]
          +0.007*[#  21]+0.004*[#   5]+0.003*[#   3]+0.003*[#   8]+0.003*[#  20]
          +0.003*[#  16]+0.002*[#   2]+0.002*[#  19]+0.002*[#   1]+0.002*[#  18]
          +0.001*[#  13]+0.001*[#  17]
    |psi|^2 = 0.500
==== e(  24) =    11.78067 eV ==== 
     psi = 0.396*[#  11]+0.137*[#  12]+0.012*[#   8]+0.006*[#   3]+0.006*[#  20]
          +0.004*[#   9]+0.003*[#   4]+0.003*[#  17]+0.003*[#  21]+0.001*[#  16]
          
    |psi|^2 = 0.573
==== e(  25) =    12.04558 eV ==== 
     psi = 0.087*[#  12]+0.036*[#  11]+0.018*[#  13]+0.011*[#   1]+0.011*[#  18]
          +0.009*[#   6]+0.002*[#   9]+0.001*[#   2]+0.001*[#  19]
    |psi|^2 = 0.179
==== e(  26) =    13.47456 eV ==== 
     psi = 0.010*[#  15]+0.005*[#   4]+0.005*[#  21]+0.003*[#  14]+0.002*[#   3]
          +0.002*[#  20]+0.001*[#  10]
    |psi|^2 = 0.028
==== e(  27) =    13.79059 eV ==== 
     psi = 0.009*[#  14]+0.005*[#   3]+0.005*[#  20]+0.003*[#  15]+0.002*[#   4]
          +0.002*[#  21]
    |psi|^2 = 0.025
==== e(  28) =    14.02982 eV ==== 
     psi = 0.009*[#   6]+0.003*[#   1]+0.003*[#  18]+0.003*[#   2]+0.003*[#  19]
          +0.003*[#  13]+0.002*[#  16]
    |psi|^2 = 0.027
==== e(  29) =    16.03027 eV ==== 
     psi = 0.020*[#  10]+0.004*[#   1]+0.004*[#  18]+0.002*[#  15]
    |psi|^2 = 0.032
==== e(  30) =    16.79600 eV ==== 
     psi = 0.009*[#  15]+0.004*[#  10]+0.004*[#  14]+0.002*[#   1]+0.002*[#  18]
          
    |psi|^2 = 0.024

 k =   0.0190474286  0.0329911140  0.1262000000
==== e(   1) =   -53.60737 eV ==== 
     psi = 0.955*[#   5]+0.014*[#   6]+0.010*[#   2]+0.010*[#  19]+0.005*[#  12]
          +0.002*[#  13]+0.002*[#   1]+0.002*[#  11]+0.002*[#  18]
    |psi|^2 = 1.000
==== e(   2) =   -29.83683 eV ==== 
     psi = 0.968*[#   7]+0.011*[#  10]+0.006*[#   1]+0.006*[#  18]+0.004*[#   2]
          +0.004*[#  19]
    |psi|^2 = 1.000
==== e(   3) =   -29.60461 eV ==== 
     psi = 0.728*[#   9]+0.243*[#   8]+0.019*[#  12]+0.006*[#  11]+0.001*[#   4]
          +0.001*[#  21]+0.001*[#   6]
    |psi|^2 = 1.000
==== e(   4) =   -29.60067 eV ==== 
     psi = 0.727*[#   8]+0.242*[#   9]+0.020*[#  11]+0.007*[#  12]+0.001*[#   3]
          +0.001*[#  20]
    |psi|^2 = 1.000
==== e(   5) =   -12.54067 eV ==== 
     psi = 0.367*[#   6]+0.293*[#   1]+0.293*[#  18]+0.020*[#   5]+0.008*[#  12]
          +0.007*[#   2]+0.007*[#  19]+0.003*[#  11]
    |psi|^2 = 0.999
==== e(   6) =   -11.17541 eV ==== 
     psi = 0.353*[#  10]+0.310*[#   1]+0.310*[#  18]+0.024*[#   7]+0.001*[#  15]
          
    |psi|^2 = 0.999
==== e(   7) =    -4.15482 eV ==== 
     psi = 0.303*[#  13]+0.283*[#   2]+0.283*[#  19]+0.034*[#   1]+0.034*[#  18]
          +0.027*[#   6]+0.020*[#   5]
    |psi|^2 = 0.986
==== e(   8) =    -1.33072 eV ==== 
     psi = 0.430*[#  16]+0.152*[#   4]+0.152*[#  21]+0.143*[#  17]+0.051*[#   3]
          +0.051*[#  20]+0.004*[#   6]+0.002*[#  12]+0.001*[#  11]+0.001*[#   1]
          +0.001*[#  18]
    |psi|^2 = 0.990
==== e(   9) =    -1.27421 eV ==== 
     psi = 0.433*[#  17]+0.153*[#   3]+0.153*[#  20]+0.144*[#  16]+0.051*[#   4]
          +0.051*[#  21]+0.003*[#  11]+0.001*[#  12]
    |psi|^2 = 0.990
==== e(  10) =    -0.50222 eV ==== 
     psi = 0.326*[#   2]+0.326*[#  19]+0.119*[#  15]+0.059*[#   4]+0.059*[#  21]
          +0.040*[#  14]+0.020*[#   3]+0.020*[#  20]+0.018*[#  10]+0.004*[#   7]
          +0.001*[#   1]+0.001*[#  18]
    |psi|^2 = 0.992
==== e(  11) =    -0.19111 eV ==== 
     psi = 0.331*[#  14]+0.203*[#   3]+0.203*[#  20]+0.111*[#  15]+0.070*[#   4]
          +0.070*[#  21]
    |psi|^2 = 0.988
==== e(  12) =    -0.05288 eV ==== 
     psi = 0.205*[#  15]+0.156*[#   2]+0.156*[#  19]+0.148*[#   4]+0.148*[#  21]
          +0.069*[#  14]+0.051*[#   3]+0.051*[#  20]+0.003*[#   7]+0.002*[#  10]
          
    |psi|^2 = 0.988
==== e(  13) =     1.88388 eV ==== 
     psi = 0.621*[#  13]+0.162*[#   2]+0.162*[#  19]+0.004*[#   1]+0.004*[#  18]
          +0.003*[#  16]+0.002*[#  12]+0.001*[#   4]+0.001*[#  21]
    |psi|^2 = 0.963
==== e(  14) =     4.16296 eV ==== 
     psi = 0.389*[#  15]+0.158*[#   4]+0.158*[#  21]+0.138*[#  14]+0.053*[#   3]
          +0.053*[#  20]+0.003*[#   1]+0.003*[#  18]+0.003*[#  10]
    |psi|^2 = 0.957
==== e(  15) =     4.21503 eV ==== 
     psi = 0.385*[#  14]+0.164*[#   3]+0.164*[#  20]+0.136*[#  15]+0.055*[#   4]
          +0.055*[#  21]
    |psi|^2 = 0.957
==== e(  16) =     4.36514 eV ==== 
     psi = 0.297*[#  16]+0.208*[#   4]+0.208*[#  21]+0.099*[#  17]+0.069*[#   3]
          +0.069*[#  20]+0.010*[#  12]+0.004*[#  11]+0.003*[#   6]+0.002*[#   2]
          +0.002*[#  13]+0.002*[#  19]+0.001*[#   1]+0.001*[#  18]
    |psi|^2 = 0.979
==== e(  17) =     4.39072 eV ==== 
     psi = 0.299*[#  17]+0.212*[#   3]+0.212*[#  20]+0.100*[#  16]+0.071*[#   4]
          +0.071*[#  21]+0.013*[#  11]+0.005*[#  12]
    |psi|^2 = 0.983
==== e(  18) =     6.51103 eV ==== 
     psi = 0.467*[#   6]+0.136*[#   1]+0.136*[#  18]+0.026*[#   2]+0.026*[#  19]
          +0.015*[#  13]+0.014*[#  12]+0.005*[#  11]+0.003*[#   4]+0.003*[#  21]
          
    |psi|^2 = 0.831
==== e(  19) =     6.73196 eV ==== 
     psi = 0.103*[#  10]+0.026*[#   1]+0.026*[#  18]+0.002*[#   2]+0.002*[#  19]
          
    |psi|^2 = 0.160
==== e(  20) =     7.52390 eV ==== 
     psi = 0.028*[#  13]+0.005*[#   6]+0.001*[#  16]
    |psi|^2 = 0.038
==== e(  21) =     9.51394 eV ==== 
     psi = 0.465*[#  10]+0.138*[#   1]+0.138*[#  18]+0.009*[#   2]+0.009*[#  19]
          +0.002*[#   4]+0.002*[#  21]
    |psi|^2 = 0.765
==== e(  22) =     9.83191 eV ==== 

    |psi|^2 = 0.001
==== e(  23) =    11.59153 eV ==== 
     psi = 0.329*[#  12]+0.111*[#  11]+0.039*[#   6]+0.010*[#   9]+0.006*[#   4]
          +0.006*[#  21]+0.003*[#   8]+0.003*[#  16]+0.003*[#   3]+0.003*[#  20]
          +0.002*[#   5]+0.001*[#   1]+0.001*[#  18]+0.001*[#   2]+0.001*[#  13]
          +0.001*[#  17]+0.001*[#  19]
    |psi|^2 = 0.522
==== e(  24) =    11.72635 eV ==== 
     psi = 0.407*[#  11]+0.138*[#  12]+0.012*[#   8]+0.006*[#   3]+0.006*[#  20]
          +0.004*[#   9]+0.003*[#  17]+0.003*[#   4]+0.003*[#  21]+0.001*[#  16]
          
    |psi|^2 = 0.583
==== e(  25) =    11.98625 eV ==== 
     psi = 0.066*[#  12]+0.024*[#  11]+0.018*[#   6]+0.018*[#  13]+0.011*[#   1]
          +0.011*[#  18]+0.002*[#   2]+0.002*[#   9]+0.002*[#  19]
    |psi|^2 = 0.155
==== e(  26) =    13.64357 eV ==== 
     psi = 0.010*[#  15]+0.005*[#   4]+0.005*[#  21]+0.003*[#  14]+0.002*[#   3]
          +0.002*[#  20]
    |psi|^2 = 0.027
==== e(  27) =    13.79636 eV ==== 
     psi = 0.010*[#  14]+0.005*[#   3]+0.005*[#  20]+0.003*[#  15]+0.002*[#   4]
          +0.002*[#  21]
    |psi|^2 = 0.026
==== e(  28) =    14.03469 eV ==== 
     psi = 0.009*[#   6]+0.003*[#   1]+0.003*[#  18]+0.003*[#   2]+0.003*[#  19]
          +0.002*[#  13]
    |psi|^2 = 0.026
==== e(  29) =    16.05553 eV ==== 
     psi = 0.023*[#  10]+0.005*[#   1]+0.005*[#  18]
    |psi|^2 = 0.035
==== e(  30) =    16.71816 eV ==== 
     psi = 0.002*[#  15]+0.001*[#   2]+0.001*[#  19]+0.001*[#  14]
    |psi|^2 = 0.007

 k =   0.0095237143  0.0164955570  0.1262000000
==== e(   1) =   -53.60774 eV ==== 
     psi = 0.957*[#   5]+0.015*[#   6]+0.010*[#   2]+0.010*[#  19]+0.002*[#  13]
          +0.002*[#   1]+0.002*[#  18]+0.001*[#  12]
    |psi|^2 = 1.000
==== e(   2) =   -29.83765 eV ==== 
     psi = 0.968*[#   7]+0.011*[#  10]+0.006*[#   1]+0.006*[#  18]+0.004*[#   2]
          +0.004*[#  19]
    |psi|^2 = 1.000
==== e(   3) =   -29.60084 eV ==== 
     psi = 0.727*[#   9]+0.242*[#   8]+0.020*[#  12]+0.007*[#  11]+0.001*[#   4]
          +0.001*[#  21]
    |psi|^2 = 1.000
==== e(   4) =   -29.59984 eV ==== 
     psi = 0.727*[#   8]+0.242*[#   9]+0.020*[#  11]+0.007*[#  12]+0.001*[#   3]
          +0.001*[#  20]
    |psi|^2 = 1.000
==== e(   5) =   -12.55209 eV ==== 
     psi = 0.374*[#   6]+0.294*[#   1]+0.294*[#  18]+0.020*[#   5]+0.007*[#   2]
          +0.007*[#  19]+0.002*[#  12]
    |psi|^2 = 0.999
==== e(   6) =   -11.17870 eV ==== 
     psi = 0.355*[#  10]+0.309*[#   1]+0.309*[#  18]+0.024*[#   7]
    |psi|^2 = 0.999
==== e(   7) =    -4.16836 eV ==== 
     psi = 0.305*[#  13]+0.282*[#   2]+0.282*[#  19]+0.034*[#   1]+0.034*[#  18]
          +0.028*[#   6]+0.020*[#   5]
    |psi|^2 = 0.986
==== e(   8) =    -1.30015 eV ==== 
     psi = 0.434*[#  16]+0.152*[#   4]+0.152*[#  21]+0.145*[#  17]+0.051*[#   3]
          +0.051*[#  20]+0.002*[#  12]
    |psi|^2 = 0.990
==== e(   9) =    -1.28590 eV ==== 
     psi = 0.435*[#  17]+0.152*[#   3]+0.152*[#  20]+0.145*[#  16]+0.051*[#   4]
          +0.051*[#  21]+0.002*[#  11]
    |psi|^2 = 0.990
==== e(  10) =    -0.40998 eV ==== 
     psi = 0.401*[#   2]+0.401*[#  19]+0.060*[#  15]+0.031*[#   4]+0.031*[#  21]
          +0.020*[#  14]+0.018*[#  10]+0.010*[#   3]+0.010*[#  20]+0.006*[#   7]
          +0.002*[#   1]+0.002*[#  18]
    |psi|^2 = 0.993
==== e(  11) =    -0.17069 eV ==== 
     psi = 0.331*[#  14]+0.204*[#   3]+0.204*[#  20]+0.110*[#  15]+0.069*[#   4]
          +0.069*[#  21]
    |psi|^2 = 0.987
==== e(  12) =    -0.12515 eV ==== 
     psi = 0.269*[#  15]+0.174*[#   4]+0.174*[#  21]+0.090*[#  14]+0.080*[#   2]
          +0.080*[#  19]+0.059*[#   3]+0.059*[#  20]+0.002*[#   7]+0.001*[#  10]
          
    |psi|^2 = 0.988
==== e(  13) =     1.89235 eV ==== 
     psi = 0.622*[#  13]+0.164*[#   2]+0.164*[#  19]+0.004*[#   1]+0.004*[#  18]
          +0.001*[#   5]
    |psi|^2 = 0.962
==== e(  14) =     4.17655 eV ==== 
     psi = 0.390*[#  15]+0.162*[#   4]+0.162*[#  21]+0.132*[#  14]+0.054*[#   3]
          +0.054*[#  20]
    |psi|^2 = 0.957
==== e(  15) =     4.18976 eV ==== 
     psi = 0.389*[#  14]+0.164*[#   3]+0.164*[#  20]+0.132*[#  15]+0.055*[#   4]
          +0.055*[#  21]
    |psi|^2 = 0.957
==== e(  16) =     4.39493 eV ==== 
     psi = 0.296*[#  16]+0.212*[#   4]+0.212*[#  21]+0.099*[#  17]+0.071*[#   3]
          +0.071*[#  20]+0.013*[#  12]+0.004*[#  11]
    |psi|^2 = 0.982
==== e(  17) =     4.40159 eV ==== 
     psi = 0.297*[#  17]+0.213*[#   3]+0.213*[#  20]+0.099*[#  16]+0.071*[#   4]
          +0.071*[#  21]+0.014*[#  11]+0.005*[#  12]
    |psi|^2 = 0.983
==== e(  18) =     6.45452 eV ==== 
     psi = 0.485*[#   6]+0.137*[#   1]+0.137*[#  18]+0.026*[#   2]+0.026*[#  19]
          +0.014*[#  13]+0.004*[#  12]+0.001*[#  11]
    |psi|^2 = 0.832
==== e(  19) =     6.71647 eV ==== 
     psi = 0.103*[#  10]+0.027*[#   1]+0.027*[#  18]+0.002*[#   2]+0.002*[#  19]
          
    |psi|^2 = 0.161
==== e(  20) =     7.49890 eV ==== 
     psi = 0.029*[#  13]+0.004*[#   6]
    |psi|^2 = 0.035
==== e(  21) =     9.46493 eV ==== 
     psi = 0.464*[#  10]+0.141*[#   1]+0.141*[#  18]+0.009*[#   2]+0.009*[#  19]
          
    |psi|^2 = 0.766
==== e(  22) =     9.81114 eV ==== 
     psi = 0.001*[#  10]
    |psi|^2 = 0.001
==== e(  23) =    11.65398 eV ==== 
     psi = 0.380*[#  12]+0.127*[#  11]+0.013*[#   6]+0.011*[#   9]+0.006*[#   4]
          +0.006*[#  21]+0.004*[#   8]+0.003*[#  16]+0.002*[#   3]+0.002*[#  20]
          +0.001*[#  17]
    |psi|^2 = 0.561
==== e(  24) =    11.69160 eV ==== 
     psi = 0.412*[#  11]+0.138*[#  12]+0.012*[#   8]+0.007*[#   3]+0.007*[#  20]
          +0.004*[#   9]+0.003*[#  17]+0.002*[#   4]+0.002*[#  21]+0.001*[#  16]
          
    |psi|^2 = 0.588
==== e(  25) =    11.93996 eV ==== 
     psi = 0.031*[#   6]+0.029*[#  12]+0.018*[#  13]+0.012*[#   1]+0.012*[#  18]
          +0.010*[#  11]+0.002*[#   2]+0.002*[#  19]
    |psi|^2 = 0.117
==== e(  26) =    13.75888 eV ==== 
     psi = 0.010*[#  15]+0.005*[#   4]+0.005*[#  21]+0.003*[#  14]+0.002*[#   3]
          +0.002*[#  20]
    |psi|^2 = 0.027
==== e(  27) =    13.79941 eV ==== 
     psi = 0.010*[#  14]+0.005*[#   3]+0.005*[#  20]+0.003*[#  15]+0.002*[#   4]
          +0.002*[#  21]
    |psi|^2 = 0.027
==== e(  28) =    14.03569 eV ==== 
     psi = 0.010*[#   6]+0.003*[#   1]+0.003*[#  18]+0.003*[#   2]+0.003*[#  19]
          +0.002*[#  13]
    |psi|^2 = 0.025
==== e(  29) =    16.06650 eV ==== 
     psi = 0.024*[#  10]+0.006*[#   1]+0.006*[#  18]
    |psi|^2 = 0.037
==== e(  30) =    16.60526 eV ==== 
     psi = 0.002*[#   2]+0.002*[#  19]
    |psi|^2 = 0.004

 k =   0.0000000000  0.0000000000  0.1262000000
==== e(   1) =   -53.60786 eV ==== 
     psi = 0.958*[#   5]+0.016*[#   6]+0.010*[#   2]+0.010*[#  19]+0.002*[#  13]
          +0.002*[#   1]+0.002*[#  18]
    |psi|^2 = 1.000
==== e(   2) =   -29.83791 eV ==== 
     psi = 0.968*[#   7]+0.011*[#  10]+0.006*[#   1]+0.006*[#  18]+0.004*[#   2]
          +0.004*[#  19]
    |psi|^2 = 1.000
==== e(   3) =   -29.59956 eV ==== 
     psi = 0.969*[#   9]+0.027*[#  12]+0.002*[#   4]+0.002*[#  21]
    |psi|^2 = 1.000
==== e(   4) =   -29.59956 eV ==== 
     psi = 0.969*[#   8]+0.027*[#  11]+0.002*[#   3]+0.002*[#  20]
    |psi|^2 = 1.000
==== e(   5) =   -12.55590 eV ==== 
     psi = 0.377*[#   6]+0.294*[#   1]+0.294*[#  18]+0.020*[#   5]+0.007*[#   2]
          +0.007*[#  19]
    |psi|^2 = 0.999
==== e(   6) =   -11.17980 eV ==== 
     psi = 0.356*[#  10]+0.309*[#   1]+0.309*[#  18]+0.024*[#   7]
    |psi|^2 = 0.998
==== e(   7) =    -4.17289 eV ==== 
     psi = 0.305*[#  13]+0.282*[#   2]+0.282*[#  19]+0.034*[#   1]+0.034*[#  18]
          +0.028*[#   6]+0.020*[#   5]
    |psi|^2 = 0.986
==== e(   8) =    -1.28982 eV ==== 
     psi = 0.572*[#  17]+0.200*[#   3]+0.200*[#  20]+0.009*[#  16]+0.003*[#  11]
          +0.003*[#   4]+0.003*[#  21]
    |psi|^2 = 0.990
==== e(   9) =    -1.28982 eV ==== 
     psi = 0.572*[#  16]+0.200*[#   4]+0.200*[#  21]+0.009*[#  17]+0.003*[#  12]
          +0.003*[#   3]+0.003*[#  20]
    |psi|^2 = 0.990
==== e(  10) =    -0.36450 eV ==== 
     psi = 0.482*[#   2]+0.482*[#  19]+0.019*[#  10]+0.007*[#   7]+0.002*[#   1]
          +0.002*[#  18]
    |psi|^2 = 0.993
==== e(  11) =    -0.16391 eV ==== 
     psi = 0.441*[#  15]+0.273*[#   4]+0.273*[#  21]
    |psi|^2 = 0.987
==== e(  12) =    -0.16391 eV ==== 
     psi = 0.441*[#  14]+0.273*[#   3]+0.273*[#  20]
    |psi|^2 = 0.987
==== e(  13) =     1.89512 eV ==== 
     psi = 0.623*[#  13]+0.164*[#   2]+0.164*[#  19]+0.004*[#   1]+0.004*[#  18]
          +0.001*[#   5]
    |psi|^2 = 0.961
==== e(  14) =     4.18130 eV ==== 
     psi = 0.521*[#  14]+0.218*[#   3]+0.218*[#  20]
    |psi|^2 = 0.957
==== e(  15) =     4.18130 eV ==== 
     psi = 0.521*[#  15]+0.218*[#   4]+0.218*[#  21]
    |psi|^2 = 0.957
==== e(  16) =     4.40525 eV ==== 
     psi = 0.393*[#  16]+0.283*[#   4]+0.283*[#  21]+0.018*[#  12]+0.002*[#  17]
          +0.002*[#   3]+0.002*[#  20]
    |psi|^2 = 0.983
==== e(  17) =     4.40525 eV ==== 
     psi = 0.393*[#  17]+0.283*[#   3]+0.283*[#  20]+0.018*[#  11]+0.002*[#  16]
          +0.002*[#   4]+0.002*[#  21]
    |psi|^2 = 0.983
==== e(  18) =     6.43531 eV ==== 
     psi = 0.491*[#   6]+0.137*[#   1]+0.137*[#  18]+0.027*[#   2]+0.027*[#  19]
          +0.013*[#  13]
    |psi|^2 = 0.833
==== e(  19) =     6.71129 eV ==== 
     psi = 0.103*[#  10]+0.027*[#   1]+0.027*[#  18]+0.002*[#   2]+0.002*[#  19]
          
    |psi|^2 = 0.161
==== e(  20) =     7.49057 eV ==== 
     psi = 0.029*[#  13]+0.003*[#   6]
    |psi|^2 = 0.034
==== e(  21) =     9.44793 eV ==== 
     psi = 0.463*[#  10]+0.141*[#   1]+0.141*[#  18]+0.009*[#   2]+0.009*[#  19]
          
    |psi|^2 = 0.765
==== e(  22) =     9.80458 eV ==== 
     psi = 0.002*[#  10]
    |psi|^2 = 0.002
==== e(  23) =    11.67974 eV ==== 
     psi = 0.551*[#  11]+0.017*[#   8]+0.009*[#   3]+0.009*[#  20]+0.005*[#  17]
          
    |psi|^2 = 0.590
==== e(  24) =    11.67974 eV ==== 
     psi = 0.551*[#  12]+0.017*[#   9]+0.009*[#   4]+0.009*[#  21]+0.005*[#  16]
          
    |psi|^2 = 0.590
==== e(  25) =    11.92015 eV ==== 
     psi = 0.040*[#   6]+0.018*[#  13]+0.013*[#   1]+0.013*[#  18]+0.002*[#   2]
          +0.002*[#  19]
    |psi|^2 = 0.089
==== e(  26) =    13.80040 eV ==== 
     psi = 0.014*[#  15]+0.007*[#   4]+0.007*[#  21]
    |psi|^2 = 0.027
==== e(  27) =    13.80040 eV ==== 
     psi = 0.014*[#  14]+0.007*[#   3]+0.007*[#  20]
    |psi|^2 = 0.027
==== e(  28) =    14.03570 eV ==== 
     psi = 0.010*[#   6]+0.003*[#   1]+0.003*[#  18]+0.003*[#   2]+0.003*[#  19]
          +0.002*[#  13]
    |psi|^2 = 0.025
==== e(  29) =    16.06926 eV ==== 
     psi = 0.025*[#  10]+0.006*[#   1]+0.006*[#  18]
    |psi|^2 = 0.037
==== e(  30) =    16.56071 eV ==== 
     psi = 0.002*[#   2]+0.002*[#  19]
    |psi|^2 = 0.003

Lowdin Charges: 

     Atom #   1: total charge =   5.6056, s =  1.5271, 
     Atom #   1: total charge =   5.6056, p =  4.0784, pz=  1.5121, px=  1.2397, py=  1.3267, 
     Atom #   1: total charge =   5.6056, d =  0.0000, dz2=  0.0000, dxz=  0.0000, dyz=  0.0000, dx2-y2=  0.0000, dxy=  0.0000, 
     Atom #   2: total charge =  13.3410, s =  2.3978, 
     Atom #   2: total charge =  13.3410, p =  7.0507, pz=  2.4377, px=  2.1431, py=  2.4700, 
     Atom #   2: total charge =  13.3410, d =  3.8925, dz2=  0.6579, dxz=  0.8349, dyz=  0.8148, dx2-y2=  0.9601, dxy=  0.6248, 
     Atom #   3: total charge =   5.6056, s =  1.5271, 
     Atom #   3: total charge =   5.6056, p =  4.0784, pz=  1.5121, px=  1.2397, py=  1.3267, 
     Atom #   3: total charge =   5.6056, d =  0.0000, dz2=  0.0000, dxz=  0.0000, dyz=  0.0000, dx2-y2=  0.0000, dxy=  0.0000, 
     Spilling Parameter:   0.0179

     PROJWFC      :      3.82s CPU      4.10s WALL


   This run was terminated on:  23:33:30  12Jun2021            

=------------------------------------------------------------------------------=
   JOB DONE.
=------------------------------------------------------------------------------=
