
     Program PWSCF v.6.6 starts on 14Jun2021 at 15:52:40 

     This program is part of the open-source Quantum ESPRESSO suite
     for quantum simulation of materials; please cite
         "P. Giannozzi et al., J. Phys.:Condens. Matter 21 395502 (2009);
         "P. Giannozzi et al., J. Phys.:Condens. Matter 29 465901 (2017);
          URL http://www.quantum-espresso.org", 
     in publications or presentations arising from this work. More details at
     http://www.quantum-espresso.org/quote

     Parallel version (MPI), running on     2 processors

     MPI processes distributed on     1 nodes
     R & G space division:  proc/nbgrp/npool/nimage =       2
     Fft bands division:     nmany     =       1
     Waiting for input...
     Reading input from standard input

     Current dimensions of program PWSCF are:
     Max number of different atomic species (ntypx) = 10
     Max number of k-points (npk) =  40000
     Max angular momentum in pseudopotentials (lmaxx) =  3
     file Nb.pz-spn-kjpaw_psl.1.0.0.UPF: wavefunction(s)  4S 4P 4D renormalized
     file S.pz-n-kjpaw_psl.0.1.UPF: wavefunction(s)  3P renormalized

     Subspace diagonalization in iterative solution of the eigenvalue problem:
     a serial algorithm will be used


     Parallelization info
     --------------------
     sticks:   dense  smooth     PW     G-vecs:    dense   smooth      PW
     Min         534     128     42                85019    10578    1880
     Max         535     137     43                85022    10579    1895
     Sum        1069     265     85               170041    21157    3775



     bravais-lattice index     =            4
     lattice parameter (alat)  =       6.2006  a.u.
     unit-cell volume          =    1258.4114 (a.u.)^3
     number of atoms/cell      =            6
     number of atomic types    =            2
     number of electrons       =        50.00
     number of Kohn-Sham states=           60
     kinetic-energy cutoff     =      25.0000  Ry
     charge density cutoff     =     400.0000  Ry
     convergence threshold     =      1.0E-08
     mixing beta               =       0.7000
     number of iterations used =            8  plain     mixing
     Exchange-correlation= SLA PZ NOGX NOGC
                           (   1   1   0   0   0   0   0)

     celldm(1)=   6.200569  celldm(2)=   0.000000  celldm(3)=   6.095331
     celldm(4)=   0.000000  celldm(5)=   0.000000  celldm(6)=   0.000000

     crystal axes: (cart. coord. in units of alat)
               a(1) = (   1.000000   0.000000   0.000000 )  
               a(2) = (  -0.500000   0.866025   0.000000 )  
               a(3) = (   0.000000   0.000000   6.095331 )  

     reciprocal axes: (cart. coord. in units 2 pi/alat)
               b(1) = (  1.000000  0.577350 -0.000000 )  
               b(2) = (  0.000000  1.154701  0.000000 )  
               b(3) = (  0.000000 -0.000000  0.164060 )  


     PseudoPot. # 1 for Nb read from file:
     ../Nb.pz-spn-kjpaw_psl.1.0.0.UPF
     MD5 check sum: 38c2e04b3cc915696ca8dc9f46a23270
     Pseudo is Projector augmented-wave + core cor, Zval = 13.0
     Generated using "atomic" code by A. Dal Corso v.6.2.2
     Shape of augmentation charge: PSQ
     Using radial grid of 1227 points,  6 beta functions with: 
                l(1) =   0
                l(2) =   0
                l(3) =   1
                l(4) =   1
                l(5) =   2
                l(6) =   2
     Q(r) pseudized with 0 coefficients 


     PseudoPot. # 2 for S  read from file:
     ../S.pz-n-kjpaw_psl.0.1.UPF
     MD5 check sum: c0b1682311cf098e03f7841691d9a679
     Pseudo is Projector augmented-wave + core cor, Zval =  6.0
     Generated using "atomic" code by A. Dal Corso v.5.0.2 svn rev. 9415
     Shape of augmentation charge: PSQ
     Using radial grid of 1151 points,  4 beta functions with: 
                l(1) =   0
                l(2) =   0
                l(3) =   1
                l(4) =   1
     Q(r) pseudized with 0 coefficients 


     atomic species   valence    mass     pseudopotential
        Nb            13.00    92.90600     Nb( 1.00)
        S              6.00    32.06500     S ( 1.00)

      6 Sym. Ops. (no inversion) found


                                    s                        frac. trans.

      isym =  1     identity                                     

 cryst.   s( 1) = (     1          0          0      )
                  (     0          1          0      )
                  (     0          0          1      )

 cart.    s( 1) = (  1.0000000  0.0000000  0.0000000 )
                  (  0.0000000  1.0000000  0.0000000 )
                  (  0.0000000  0.0000000  1.0000000 )


      isym =  2     120 deg rotation - cryst. axis [0,0,1]       

 cryst.   s( 2) = (     0          1          0      )
                  (    -1         -1          0      )
                  (     0          0          1      )

 cart.    s( 2) = ( -0.5000000 -0.8660254  0.0000000 )
                  (  0.8660254 -0.5000000  0.0000000 )
                  (  0.0000000  0.0000000  1.0000000 )


      isym =  3     120 deg rotation - cryst. axis [0,0,-1]      

 cryst.   s( 3) = (    -1         -1          0      )
                  (     1          0          0      )
                  (     0          0          1      )

 cart.    s( 3) = ( -0.5000000  0.8660254  0.0000000 )
                  ( -0.8660254 -0.5000000  0.0000000 )
                  (  0.0000000  0.0000000  1.0000000 )


      isym =  4     inv. 180 deg rotation - cart. axis [1,0,0]   

 cryst.   s( 4) = (    -1          0          0      )
                  (     1          1          0      )
                  (     0          0          1      )

 cart.    s( 4) = ( -1.0000000  0.0000000  0.0000000 )
                  (  0.0000000  1.0000000  0.0000000 )
                  (  0.0000000  0.0000000  1.0000000 )


      isym =  5     inv. 180 deg rotation - cryst. axis [0,1,0]  

 cryst.   s( 5) = (     1          1          0      )
                  (     0         -1          0      )
                  (     0          0          1      )

 cart.    s( 5) = (  0.5000000  0.8660254  0.0000000 )
                  (  0.8660254 -0.5000000  0.0000000 )
                  (  0.0000000  0.0000000  1.0000000 )


      isym =  6     inv. 180 deg rotation - cryst. axis [1,1,0]  

 cryst.   s( 6) = (     0         -1          0      )
                  (    -1          0          0      )
                  (     0          0          1      )

 cart.    s( 6) = (  0.5000000 -0.8660254  0.0000000 )
                  ( -0.8660254 -0.5000000  0.0000000 )
                  (  0.0000000  0.0000000  1.0000000 )


     point group C_3v (3m)  
     there are  3 classes
     the character table:

       E     2C3   3s_v 
A_1    1.00  1.00  1.00
A_2    1.00  1.00 -1.00
E      2.00 -1.00  0.00

     the symmetry operations in each class and the name of the first element:

     E        1
          identity                                               
     2C3      2    3
          120 deg rotation - cryst. axis [0,0,1]                 
     3s_v     4    5    6
          inv. 180 deg rotation - cart. axis [1,0,0]             

   Cartesian axes

     site n.     atom                  positions (alat units)
         1           S   tau(   1) = (   0.0000000   0.5773503   1.4932768  )
         2           Nb  tau(   2) = (   0.0000000   0.0000000   1.0094618  )
         3           S   tau(   3) = (   0.0000000   0.5773503   0.5321904  )
         4           S   tau(   4) = (   0.5000000   0.2886751   2.5511139  )
         5           Nb  tau(   5) = (   0.0000000   0.0000000   3.0283905  )
         6           S   tau(   6) = (   0.5000000   0.2886751   3.5056620  )

   Crystallographic axes

     site n.     atom                  positions (cryst. coord.)
         1           S   tau(   1) = (  0.3333333  0.6666667  0.2449870  )
         2           Nb  tau(   2) = (  0.0000000  0.0000000  0.1656123  )
         3           S   tau(   3) = (  0.3333333  0.6666667  0.0873112  )
         4           S   tau(   4) = (  0.6666667  0.3333333  0.4185358  )
         5           Nb  tau(   5) = (  0.0000000  0.0000000  0.4968378  )
         6           S   tau(   6) = (  0.6666667  0.3333333  0.5751389  )

     number of k points=     4  Methfessel-Paxton smearing, width (Ry)=  0.0200
                       cart. coord. in units 2pi/alat
        k(    1) = (   0.0000000   0.0000000   0.0000000), wk =   0.1250000
        k(    2) = (   0.0000000   0.2886751   0.0000000), wk =   0.7500000
        k(    3) = (   0.0000000  -0.5773503   0.0000000), wk =   0.3750000
        k(    4) = (   0.2500000   0.4330127   0.0000000), wk =   0.7500000

                       cryst. coord.
        k(    1) = (   0.0000000   0.0000000   0.0000000), wk =   0.1250000
        k(    2) = (   0.0000000   0.2500000   0.0000000), wk =   0.7500000
        k(    3) = (   0.0000000  -0.5000000   0.0000000), wk =   0.3750000
        k(    4) = (   0.2500000   0.2500000   0.0000000), wk =   0.7500000

     Dense  grid:   170041 G-vectors     FFT dimensions: (  40,  40, 243)

     Smooth grid:    21157 G-vectors     FFT dimensions: (  20,  20, 125)

     Dynamical RAM for                 wfc:       1.22 MB

     Dynamical RAM for     wfc (w. buffer):       6.08 MB

     Dynamical RAM for           str. fact:       2.59 MB

     Dynamical RAM for           local pot:       0.00 MB

     Dynamical RAM for          nlocal pot:       1.38 MB

     Dynamical RAM for                qrad:       3.21 MB

     Dynamical RAM for          rho,v,vnew:       8.36 MB

     Dynamical RAM for               rhoin:       2.79 MB

     Dynamical RAM for            rho*nmix:      20.76 MB

     Dynamical RAM for           G-vectors:       4.95 MB

     Dynamical RAM for          h,s,v(r/c):       0.66 MB

     Dynamical RAM for          <psi|beta>:       0.06 MB

     Dynamical RAM for                 psi:       2.43 MB

     Dynamical RAM for                hpsi:       2.43 MB

     Dynamical RAM for                spsi:       2.43 MB

     Dynamical RAM for      wfcinit/wfcrot:       2.51 MB

     Dynamical RAM for           addusdens:     246.48 MB

     Estimated static dynamical RAM per process >      61.45 MB

     Estimated max dynamical RAM per process >     307.93 MB

     Estimated total dynamical RAM >     615.87 MB

     Initial potential from superposition of free atoms

     starting charge   49.99775, renormalised to   50.00000

     negative rho (up, down):  7.872E-05 0.000E+00
     Starting wfcs are   42 randomized atomic wfcs +   18 random wfcs
     Checking if some PAW data can be deallocated... 

     total cpu time spent up to now is        2.9 secs

     Self-consistent Calculation

     iteration #  1     ecut=    25.00 Ry     beta= 0.70
     Davidson diagonalization with overlap
     ethr =  1.00E-02,  avg # of iterations =  7.2

     Threshold (ethr) on eigenvalues was too large:
     Diagonalizing with lowered threshold

     Davidson diagonalization with overlap
     ethr =  5.94E-04,  avg # of iterations =  2.0

     negative rho (up, down):  9.328E-05 0.000E+00

     total cpu time spent up to now is        9.0 secs

     total energy              =    -907.52943560 Ry
     estimated scf accuracy    <       0.29877869 Ry

     iteration #  2     ecut=    25.00 Ry     beta= 0.70
     Davidson diagonalization with overlap
     ethr =  5.98E-04,  avg # of iterations =  7.2

     negative rho (up, down):  2.189E-04 0.000E+00

     total cpu time spent up to now is       12.1 secs

     total energy              =    -907.23317543 Ry
     estimated scf accuracy    <       3.32422179 Ry

     iteration #  3     ecut=    25.00 Ry     beta= 0.70
     Davidson diagonalization with overlap
     ethr =  5.98E-04,  avg # of iterations =  8.0

     negative rho (up, down):  3.349E-04 0.000E+00

     total cpu time spent up to now is       15.5 secs

     total energy              =    -906.55304313 Ry
     estimated scf accuracy    <      35.51160570 Ry

     iteration #  4     ecut=    25.00 Ry     beta= 0.70
     Davidson diagonalization with overlap
     ethr =  5.98E-04,  avg # of iterations =  5.8

     negative rho (up, down):  1.144E-04 0.000E+00

     total cpu time spent up to now is       18.5 secs

     total energy              =    -907.63052907 Ry
     estimated scf accuracy    <       0.68402615 Ry

     iteration #  5     ecut=    25.00 Ry     beta= 0.70
     Davidson diagonalization with overlap
     ethr =  5.98E-04,  avg # of iterations =  2.0

     negative rho (up, down):  1.241E-04 0.000E+00

     total cpu time spent up to now is       21.1 secs

     total energy              =    -907.63278587 Ry
     estimated scf accuracy    <       1.15438122 Ry

     iteration #  6     ecut=    25.00 Ry     beta= 0.70
     Davidson diagonalization with overlap
     ethr =  5.98E-04,  avg # of iterations =  1.5

     negative rho (up, down):  8.570E-05 0.000E+00

     total cpu time spent up to now is       23.5 secs

     total energy              =    -907.64256173 Ry
     estimated scf accuracy    <       0.05051125 Ry

     iteration #  7     ecut=    25.00 Ry     beta= 0.70
     Davidson diagonalization with overlap
     ethr =  1.01E-04,  avg # of iterations =  8.0

     negative rho (up, down):  1.465E-04 0.000E+00

     total cpu time spent up to now is       26.3 secs

     total energy              =    -907.65244311 Ry
     estimated scf accuracy    <       1.11360959 Ry

     iteration #  8     ecut=    25.00 Ry     beta= 0.70
     Davidson diagonalization with overlap
     ethr =  1.01E-04,  avg # of iterations =  1.0

     negative rho (up, down):  1.626E-04 0.000E+00

     total cpu time spent up to now is       28.7 secs

     total energy              =    -907.64567187 Ry
     estimated scf accuracy    <       0.90113125 Ry

     iteration #  9     ecut=    25.00 Ry     beta= 0.70
     Davidson diagonalization with overlap
     ethr =  1.01E-04,  avg # of iterations =  1.0

     negative rho (up, down):  1.165E-04 0.000E+00

     total cpu time spent up to now is       31.1 secs

     total energy              =    -907.63964242 Ry
     estimated scf accuracy    <       0.25980185 Ry

     iteration # 10     ecut=    25.00 Ry     beta= 0.70
     Davidson diagonalization with overlap
     ethr =  1.01E-04,  avg # of iterations =  1.2

     negative rho (up, down):  8.864E-05 0.000E+00

     total cpu time spent up to now is       33.5 secs

     total energy              =    -907.64244578 Ry
     estimated scf accuracy    <       0.35748192 Ry

     iteration # 11     ecut=    25.00 Ry     beta= 0.70
     Davidson diagonalization with overlap
     ethr =  1.01E-04,  avg # of iterations =  1.0

     negative rho (up, down):  8.595E-05 0.000E+00

     total cpu time spent up to now is       35.9 secs

     total energy              =    -907.64522502 Ry
     estimated scf accuracy    <       0.00639499 Ry

     iteration # 12     ecut=    25.00 Ry     beta= 0.70
     Davidson diagonalization with overlap
     ethr =  1.28E-05,  avg # of iterations =  4.2

     negative rho (up, down):  8.613E-05 0.000E+00

     total cpu time spent up to now is       38.4 secs

     total energy              =    -907.64526649 Ry
     estimated scf accuracy    <       0.00001175 Ry

     iteration # 13     ecut=    25.00 Ry     beta= 0.70
     Davidson diagonalization with overlap
     ethr =  2.35E-08,  avg # of iterations =  7.2

     negative rho (up, down):  8.622E-05 0.000E+00

     total cpu time spent up to now is       41.2 secs

     total energy              =    -907.64526696 Ry
     estimated scf accuracy    <       0.00000672 Ry

     iteration # 14     ecut=    25.00 Ry     beta= 0.70
     Davidson diagonalization with overlap
     ethr =  1.34E-08,  avg # of iterations =  1.0

     negative rho (up, down):  8.622E-05 0.000E+00

     total cpu time spent up to now is       43.6 secs

     total energy              =    -907.64526711 Ry
     estimated scf accuracy    <       0.00000361 Ry

     iteration # 15     ecut=    25.00 Ry     beta= 0.70
     Davidson diagonalization with overlap
     ethr =  7.22E-09,  avg # of iterations =  1.0

     negative rho (up, down):  8.623E-05 0.000E+00

     total cpu time spent up to now is       45.9 secs

     total energy              =    -907.64526714 Ry
     estimated scf accuracy    <       0.00000005 Ry

     iteration # 16     ecut=    25.00 Ry     beta= 0.70
     Davidson diagonalization with overlap
     ethr =  1.03E-10,  avg # of iterations =  1.0

     negative rho (up, down):  8.623E-05 0.000E+00

     total cpu time spent up to now is       48.3 secs

     total energy              =    -907.64526715 Ry
     estimated scf accuracy    <       0.00000006 Ry

     iteration # 17     ecut=    25.00 Ry     beta= 0.70
     Davidson diagonalization with overlap
     ethr =  1.03E-10,  avg # of iterations =  1.0

     negative rho (up, down):  8.623E-05 0.000E+00

     total cpu time spent up to now is       50.7 secs

     End of self-consistent calculation

          k = 0.0000 0.0000 0.0000 (  2617 PWs)   bands (ev):

   -51.7501 -51.7368 -27.8342 -27.8081 -27.6010 -27.6010 -27.5913 -27.5913
   -10.3615 -10.2948  -9.0688  -8.9685  -2.1173  -1.8189   0.9696   0.9696
     1.0231   1.0231   1.3927   2.0750   2.0750   2.1195   2.1195   2.1300
     3.8877   4.3065   6.3536   6.3536   6.3864   6.3864   6.5330   6.5330
     6.5616   6.5616   8.5589   8.7253   9.0202   9.6310  11.3800  11.5793
    11.6551  12.0244  13.9341  13.9341  13.9639  13.9639  14.0572  15.8445
    15.9142  15.9142  16.1644  16.1644  16.2168  17.1322  18.0639  18.5198
    18.7977  18.8275  18.8276  19.3423

     occupation numbers 
     1.0000   1.0000   1.0000   1.0000   1.0000   1.0000   1.0000   1.0000
     1.0000   1.0000   1.0000   1.0000   1.0000   1.0000   1.0000   1.0000
     1.0000   1.0000   1.0000   1.0000   1.0000   1.0000   1.0000   1.0000
    -0.0014  -0.0000  -0.0000  -0.0000  -0.0000  -0.0000  -0.0000  -0.0000
    -0.0000  -0.0000  -0.0000  -0.0000  -0.0000  -0.0000  -0.0000  -0.0000
    -0.0000  -0.0000  -0.0000  -0.0000  -0.0000  -0.0000  -0.0000  -0.0000
    -0.0000  -0.0000  -0.0000  -0.0000  -0.0000  -0.0000  -0.0000  -0.0000
    -0.0000  -0.0000  -0.0000  -0.0000

          k = 0.0000 0.2887 0.0000 (  2641 PWs)   bands (ev):

   -51.7289 -51.7176 -27.8370 -27.8273 -27.7708 -27.7636 -27.6519 -27.6436
    -9.6062  -9.5456  -8.8174  -8.7460  -1.4665  -1.2327  -0.3283  -0.2867
     0.0043   0.1923   1.1111   1.1570   1.6767   1.7296   1.9639   2.3247
     3.1426   3.2304   5.8747   6.1114   6.1679   6.2675   6.6174   6.8534
     7.4948   7.5655   9.9108  10.3874  10.8999  11.5975  11.8914  12.3551
    12.4673  12.5595  13.0037  13.1748  14.3241  14.8774  15.0464  15.2692
    15.6257  15.7805  15.9494  16.2418  16.6147  16.6933  16.7641  17.2436
    17.4362  17.7765  18.0579  19.1167

     occupation numbers 
     1.0000   1.0000   1.0000   1.0000   1.0000   1.0000   1.0000   1.0000
     1.0000   1.0000   1.0000   1.0000   1.0000   1.0000   1.0000   1.0000
     1.0000   1.0000   1.0000   1.0000   1.0000   1.0000   1.0000   1.0000
     0.7234   0.4599  -0.0000  -0.0000  -0.0000  -0.0000  -0.0000  -0.0000
    -0.0000  -0.0000  -0.0000  -0.0000  -0.0000  -0.0000  -0.0000  -0.0000
    -0.0000  -0.0000  -0.0000  -0.0000  -0.0000  -0.0000  -0.0000  -0.0000
    -0.0000  -0.0000  -0.0000  -0.0000  -0.0000  -0.0000  -0.0000  -0.0000
    -0.0000  -0.0000  -0.0000  -0.0000

          k = 0.0000-0.5774 0.0000 (  2660 PWs)   bands (ev):

   -51.7091 -51.6975 -28.0660 -28.0578 -27.7211 -27.7189 -27.6953 -27.6862
    -8.6902  -8.6535  -8.5206  -8.4899  -2.0859  -2.0426  -1.1225  -0.9977
    -0.4172  -0.3898   0.4472   0.4956   1.5520   1.8940   2.3021   2.3551
     3.0483   3.1598   6.4220   6.4275   6.8263   6.8392   7.3156   7.6229
     8.1067   8.2317   9.3312   9.8668  11.0810  11.1084  11.5269  11.6198
    12.5578  12.6071  13.2175  13.4617  13.9608  13.9902  14.0724  14.3614
    15.0520  15.0874  16.4741  16.8905  17.7136  17.7749  18.0063  18.7144
    18.9822  19.1301  19.8747  20.1318

     occupation numbers 
     1.0000   1.0000   1.0000   1.0000   1.0000   1.0000   1.0000   1.0000
     1.0000   1.0000   1.0000   1.0000   1.0000   1.0000   1.0000   1.0000
     1.0000   1.0000   1.0000   1.0000   1.0000   1.0000   1.0000   1.0000
     0.9296   0.6751  -0.0000  -0.0000  -0.0000  -0.0000  -0.0000  -0.0000
    -0.0000  -0.0000  -0.0000  -0.0000  -0.0000  -0.0000  -0.0000  -0.0000
    -0.0000  -0.0000  -0.0000  -0.0000  -0.0000  -0.0000  -0.0000  -0.0000
    -0.0000  -0.0000  -0.0000  -0.0000  -0.0000  -0.0000  -0.0000  -0.0000
    -0.0000  -0.0000  -0.0000  -0.0000

          k = 0.2500 0.4330 0.0000 (  2671 PWs)   bands (ev):

   -51.7106 -51.6992 -27.9761 -27.9704 -27.8007 -27.7929 -27.7134 -27.7113
    -8.7079  -8.6667  -8.4999  -8.4661  -1.4641  -1.3835  -1.2379  -1.2026
    -0.1479  -0.0526   0.3666   0.5215   0.6679   0.6881   1.8479   1.9758
     3.2572   3.2828   6.0090   6.2097   6.8283   6.9292   7.0435   7.1622
     8.3970   8.4420  10.7280  10.9000  11.5779  11.6366  11.7862  12.6667
    12.9115  12.9659  13.1208  13.9922  14.3897  14.4924  14.7999  15.3058
    15.3274  15.4169  15.4769  15.7098  16.1652  16.7589  16.7654  17.3704
    17.5026  17.9035  18.1075  18.8752

     occupation numbers 
     1.0000   1.0000   1.0000   1.0000   1.0000   1.0000   1.0000   1.0000
     1.0000   1.0000   1.0000   1.0000   1.0000   1.0000   1.0000   1.0000
     1.0000   1.0000   1.0000   1.0000   1.0000   1.0000   1.0000   1.0000
     0.3779   0.3033  -0.0000  -0.0000  -0.0000  -0.0000  -0.0000  -0.0000
    -0.0000  -0.0000  -0.0000  -0.0000  -0.0000  -0.0000  -0.0000  -0.0000
    -0.0000  -0.0000  -0.0000  -0.0000  -0.0000  -0.0000  -0.0000  -0.0000
    -0.0000  -0.0000  -0.0000  -0.0000  -0.0000  -0.0000  -0.0000  -0.0000
    -0.0000  -0.0000  -0.0000  -0.0000

     the Fermi energy is     3.2175 ev

!    total energy              =    -907.64526714 Ry

     total all-electron energy =    -18448.054289 Ry
     estimated scf accuracy    <          4.6E-09 Ry
     smearing contrib. (-TS)   =      -0.00858750 Ry
     internal energy E=F+TS    =    -907.63667964 Ry

     The total energy is F=E-TS. E is the sum of the following terms:
     one-electron contribution =   -1047.65206533 Ry
     hartree contribution      =     537.18471136 Ry
     xc contribution           =     -65.26407886 Ry
     ewald contribution        =     256.18108273 Ry
     one-center paw contrib.   =    -588.08632954 Ry
      -> PAW hartree energy AE =      98.79522854 Ry
      -> PAW hartree energy PS =     -98.31650238 Ry
      -> PAW xc energy AE      =    -324.35792239 Ry
      -> PAW xc energy PS      =      29.83690196 Ry
      -> total E_H with PAW    =     537.66343752 Ry
      -> total E_XC with PAW   =    -359.78509930 Ry

     convergence has been achieved in  17 iterations

     Writing output data file ./tmp/NbS2_bi.save/

     init_run     :      1.72s CPU      1.86s WALL (       1 calls)
     electrons    :     43.73s CPU     47.83s WALL (       1 calls)

     Called by init_run:
     wfcinit      :      0.37s CPU      0.38s WALL (       1 calls)
     wfcinit:atom :      0.00s CPU      0.00s WALL (       4 calls)
     wfcinit:wfcr :      0.36s CPU      0.37s WALL (       4 calls)
     potinit      :      0.33s CPU      0.34s WALL (       1 calls)
     hinit0       :      0.59s CPU      0.59s WALL (       1 calls)

     Called by electrons:
     c_bands      :     21.43s CPU     21.69s WALL (      18 calls)
     sum_band     :     13.08s CPU     15.27s WALL (      18 calls)
     v_of_rho     :      0.54s CPU      0.58s WALL (      18 calls)
     v_h          :      0.29s CPU      0.31s WALL (      18 calls)
     v_xc         :      0.25s CPU      0.27s WALL (      18 calls)
     newd         :      7.14s CPU      8.80s WALL (      18 calls)
     PAW_pot      :      1.06s CPU      1.06s WALL (      18 calls)
     mix_rho      :      0.55s CPU      0.58s WALL (      18 calls)

     Called by c_bands:
     init_us_2    :      0.10s CPU      0.11s WALL (     148 calls)
     cegterg      :     21.11s CPU     21.36s WALL (      72 calls)

     Called by sum_band:
     sum_band:wei :      0.01s CPU      0.01s WALL (      18 calls)
     sum_band:loo :      2.51s CPU      2.55s WALL (      18 calls)
     sum_band:buf :      0.04s CPU      0.05s WALL (      72 calls)
     sum_band:ini :      0.05s CPU      0.05s WALL (      72 calls)
     sum_band:cal :      0.63s CPU      0.64s WALL (      72 calls)
     sum_band:bec :      0.01s CPU      0.01s WALL (      72 calls)
     addusdens    :     10.16s CPU     12.28s WALL (      18 calls)
     addusd:skk   :      0.05s CPU      0.06s WALL (      36 calls)
     addusd:dgemm :      4.00s CPU      5.74s WALL (      36 calls)
     addusd:qvan2 :      5.57s CPU      5.58s WALL (      36 calls)

     Called by *egterg:
     cdiaghg      :      1.72s CPU      1.72s WALL (     314 calls)
     cegterg:over :      2.53s CPU      2.54s WALL (     246 calls)
     cegterg:upda :      1.25s CPU      1.25s WALL (     246 calls)
     cegterg:last :      3.10s CPU      3.11s WALL (     116 calls)
     h_psi        :     10.35s CPU     10.56s WALL (     322 calls)
     s_psi        :      1.16s CPU      1.18s WALL (     322 calls)
     g_psi        :      0.03s CPU      0.03s WALL (     246 calls)

     Called by h_psi:
     h_psi:calbec :      1.50s CPU      1.51s WALL (     322 calls)
     vloc_psi     :      7.64s CPU      7.83s WALL (     322 calls)
     add_vuspsi   :      1.14s CPU      1.14s WALL (     322 calls)

     General routines
     calbec       :      2.13s CPU      2.15s WALL (     394 calls)
     fft          :      1.36s CPU      1.43s WALL (     107 calls)
     ffts         :      0.03s CPU      0.03s WALL (      36 calls)
     fftw         :      8.66s CPU      8.86s WALL (   24174 calls)
     interpolate  :      0.28s CPU      0.29s WALL (      18 calls)

     Parallel routines
     fft_scatt_xy :      1.06s CPU      1.08s WALL (   24317 calls)
     fft_scatt_yz :      1.10s CPU      1.17s WALL (   24317 calls)

     PAW routines
     PAW_pot      :      1.06s CPU      1.06s WALL (      18 calls)
     PAW_symme    :      0.00s CPU      0.00s WALL (      36 calls)

     PWSCF        :     46.51s CPU     50.89s WALL


   This run was terminated on:  15:53:31  14Jun2021            

=------------------------------------------------------------------------------=
   JOB DONE.
=------------------------------------------------------------------------------=
