
     Program PWSCF v.6.6 starts on 14Jun2021 at 16: 5:45 

     This program is part of the open-source Quantum ESPRESSO suite
     for quantum simulation of materials; please cite
         "P. Giannozzi et al., J. Phys.:Condens. Matter 21 395502 (2009);
         "P. Giannozzi et al., J. Phys.:Condens. Matter 29 465901 (2017);
          URL http://www.quantum-espresso.org", 
     in publications or presentations arising from this work. More details at
     http://www.quantum-espresso.org/quote

     Parallel version (MPI), running on     2 processors

     MPI processes distributed on     1 nodes
     R & G space division:  proc/nbgrp/npool/nimage =       2
     Fft bands division:     nmany     =       1
     Waiting for input...
     Reading input from standard input

     Current dimensions of program PWSCF are:
     Max number of different atomic species (ntypx) = 10
     Max number of k-points (npk) =  40000
     Max angular momentum in pseudopotentials (lmaxx) =  3
     file Nb.pz-spn-kjpaw_psl.1.0.0.UPF: wavefunction(s)  4S 4P 4D renormalized
     file S.pz-n-kjpaw_psl.0.1.UPF: wavefunction(s)  3P renormalized

     Subspace diagonalization in iterative solution of the eigenvalue problem:
     a serial algorithm will be used


     Parallelization info
     --------------------
     sticks:   dense  smooth     PW     G-vecs:    dense   smooth      PW
     Min         534     423    120                85019    60889    9204
     Max         535     424    121                85022    60916    9223
     Sum        1069     847    241               170041   121805   18427



     bravais-lattice index     =            4
     lattice parameter (alat)  =       6.2006  a.u.
     unit-cell volume          =    1258.4114 (a.u.)^3
     number of atoms/cell      =            6
     number of atomic types    =            2
     number of electrons       =        50.00
     number of Kohn-Sham states=           60
     kinetic-energy cutoff     =      80.0000  Ry
     charge density cutoff     =     400.0000  Ry
     convergence threshold     =      1.0E-08
     mixing beta               =       0.7000
     number of iterations used =            8  plain     mixing
     Exchange-correlation= SLA PZ NOGX NOGC
                           (   1   1   0   0   0   0   0)

     celldm(1)=   6.200569  celldm(2)=   0.000000  celldm(3)=   6.095331
     celldm(4)=   0.000000  celldm(5)=   0.000000  celldm(6)=   0.000000

     crystal axes: (cart. coord. in units of alat)
               a(1) = (   1.000000   0.000000   0.000000 )  
               a(2) = (  -0.500000   0.866025   0.000000 )  
               a(3) = (   0.000000   0.000000   6.095331 )  

     reciprocal axes: (cart. coord. in units 2 pi/alat)
               b(1) = (  1.000000  0.577350 -0.000000 )  
               b(2) = (  0.000000  1.154701  0.000000 )  
               b(3) = (  0.000000 -0.000000  0.164060 )  


     PseudoPot. # 1 for Nb read from file:
     ../Nb.pz-spn-kjpaw_psl.1.0.0.UPF
     MD5 check sum: 38c2e04b3cc915696ca8dc9f46a23270
     Pseudo is Projector augmented-wave + core cor, Zval = 13.0
     Generated using "atomic" code by A. Dal Corso v.6.2.2
     Shape of augmentation charge: PSQ
     Using radial grid of 1227 points,  6 beta functions with: 
                l(1) =   0
                l(2) =   0
                l(3) =   1
                l(4) =   1
                l(5) =   2
                l(6) =   2
     Q(r) pseudized with 0 coefficients 


     PseudoPot. # 2 for S  read from file:
     ../S.pz-n-kjpaw_psl.0.1.UPF
     MD5 check sum: c0b1682311cf098e03f7841691d9a679
     Pseudo is Projector augmented-wave + core cor, Zval =  6.0
     Generated using "atomic" code by A. Dal Corso v.5.0.2 svn rev. 9415
     Shape of augmentation charge: PSQ
     Using radial grid of 1151 points,  4 beta functions with: 
                l(1) =   0
                l(2) =   0
                l(3) =   1
                l(4) =   1
     Q(r) pseudized with 0 coefficients 


     atomic species   valence    mass     pseudopotential
        Nb            13.00    92.90600     Nb( 1.00)
        S              6.00    32.06500     S ( 1.00)

      6 Sym. Ops. (no inversion) found


                                    s                        frac. trans.

      isym =  1     identity                                     

 cryst.   s( 1) = (     1          0          0      )
                  (     0          1          0      )
                  (     0          0          1      )

 cart.    s( 1) = (  1.0000000  0.0000000  0.0000000 )
                  (  0.0000000  1.0000000  0.0000000 )
                  (  0.0000000  0.0000000  1.0000000 )


      isym =  2     120 deg rotation - cryst. axis [0,0,1]       

 cryst.   s( 2) = (     0          1          0      )
                  (    -1         -1          0      )
                  (     0          0          1      )

 cart.    s( 2) = ( -0.5000000 -0.8660254  0.0000000 )
                  (  0.8660254 -0.5000000  0.0000000 )
                  (  0.0000000  0.0000000  1.0000000 )


      isym =  3     120 deg rotation - cryst. axis [0,0,-1]      

 cryst.   s( 3) = (    -1         -1          0      )
                  (     1          0          0      )
                  (     0          0          1      )

 cart.    s( 3) = ( -0.5000000  0.8660254  0.0000000 )
                  ( -0.8660254 -0.5000000  0.0000000 )
                  (  0.0000000  0.0000000  1.0000000 )


      isym =  4     inv. 180 deg rotation - cart. axis [1,0,0]   

 cryst.   s( 4) = (    -1          0          0      )
                  (     1          1          0      )
                  (     0          0          1      )

 cart.    s( 4) = ( -1.0000000  0.0000000  0.0000000 )
                  (  0.0000000  1.0000000  0.0000000 )
                  (  0.0000000  0.0000000  1.0000000 )


      isym =  5     inv. 180 deg rotation - cryst. axis [0,1,0]  

 cryst.   s( 5) = (     1          1          0      )
                  (     0         -1          0      )
                  (     0          0          1      )

 cart.    s( 5) = (  0.5000000  0.8660254  0.0000000 )
                  (  0.8660254 -0.5000000  0.0000000 )
                  (  0.0000000  0.0000000  1.0000000 )


      isym =  6     inv. 180 deg rotation - cryst. axis [1,1,0]  

 cryst.   s( 6) = (     0         -1          0      )
                  (    -1          0          0      )
                  (     0          0          1      )

 cart.    s( 6) = (  0.5000000 -0.8660254  0.0000000 )
                  ( -0.8660254 -0.5000000  0.0000000 )
                  (  0.0000000  0.0000000  1.0000000 )


     point group C_3v (3m)  
     there are  3 classes
     the character table:

       E     2C3   3s_v 
A_1    1.00  1.00  1.00
A_2    1.00  1.00 -1.00
E      2.00 -1.00  0.00

     the symmetry operations in each class and the name of the first element:

     E        1
          identity                                               
     2C3      2    3
          120 deg rotation - cryst. axis [0,0,1]                 
     3s_v     4    5    6
          inv. 180 deg rotation - cart. axis [1,0,0]             

   Cartesian axes

     site n.     atom                  positions (alat units)
         1           S   tau(   1) = (   0.0000000   0.5773503   1.4932768  )
         2           Nb  tau(   2) = (   0.0000000   0.0000000   1.0094618  )
         3           S   tau(   3) = (   0.0000000   0.5773503   0.5321904  )
         4           S   tau(   4) = (   0.5000000   0.2886751   2.5511139  )
         5           Nb  tau(   5) = (   0.0000000   0.0000000   3.0283905  )
         6           S   tau(   6) = (   0.5000000   0.2886751   3.5056620  )

   Crystallographic axes

     site n.     atom                  positions (cryst. coord.)
         1           S   tau(   1) = (  0.3333333  0.6666667  0.2449870  )
         2           Nb  tau(   2) = (  0.0000000  0.0000000  0.1656123  )
         3           S   tau(   3) = (  0.3333333  0.6666667  0.0873112  )
         4           S   tau(   4) = (  0.6666667  0.3333333  0.4185358  )
         5           Nb  tau(   5) = (  0.0000000  0.0000000  0.4968378  )
         6           S   tau(   6) = (  0.6666667  0.3333333  0.5751389  )

     number of k points=     4  Methfessel-Paxton smearing, width (Ry)=  0.0200
                       cart. coord. in units 2pi/alat
        k(    1) = (   0.0000000   0.0000000   0.0000000), wk =   0.1250000
        k(    2) = (   0.0000000   0.2886751   0.0000000), wk =   0.7500000
        k(    3) = (   0.0000000  -0.5773503   0.0000000), wk =   0.3750000
        k(    4) = (   0.2500000   0.4330127   0.0000000), wk =   0.7500000

                       cryst. coord.
        k(    1) = (   0.0000000   0.0000000   0.0000000), wk =   0.1250000
        k(    2) = (   0.0000000   0.2500000   0.0000000), wk =   0.7500000
        k(    3) = (   0.0000000  -0.5000000   0.0000000), wk =   0.3750000
        k(    4) = (   0.2500000   0.2500000   0.0000000), wk =   0.7500000

     Dense  grid:   170041 G-vectors     FFT dimensions: (  40,  40, 243)

     Smooth grid:   121805 G-vectors     FFT dimensions: (  36,  36, 216)

     Dynamical RAM for                 wfc:       6.96 MB

     Dynamical RAM for     wfc (w. buffer):      34.80 MB

     Dynamical RAM for           str. fact:       2.59 MB

     Dynamical RAM for           local pot:       0.00 MB

     Dynamical RAM for          nlocal pot:       7.89 MB

     Dynamical RAM for                qrad:       3.21 MB

     Dynamical RAM for          rho,v,vnew:       8.36 MB

     Dynamical RAM for               rhoin:       2.79 MB

     Dynamical RAM for            rho*nmix:      20.76 MB

     Dynamical RAM for           G-vectors:       5.33 MB

     Dynamical RAM for          h,s,v(r/c):       0.66 MB

     Dynamical RAM for          <psi|beta>:       0.06 MB

     Dynamical RAM for                 psi:      13.92 MB

     Dynamical RAM for                hpsi:      13.92 MB

     Dynamical RAM for                spsi:      13.92 MB

     Dynamical RAM for      wfcinit/wfcrot:      14.00 MB

     Dynamical RAM for           addusdens:     246.48 MB

     Estimated static dynamical RAM per process >      97.07 MB

     Estimated max dynamical RAM per process >     343.55 MB

     Estimated total dynamical RAM >     687.11 MB

     Initial potential from superposition of free atoms

     starting charge   49.99775, renormalised to   50.00000

     negative rho (up, down):  7.872E-05 0.000E+00
     Starting wfcs are   42 randomized atomic wfcs +   18 random wfcs
     Checking if some PAW data can be deallocated... 

     total cpu time spent up to now is        6.7 secs

     Self-consistent Calculation

     iteration #  1     ecut=    80.00 Ry     beta= 0.70
     Davidson diagonalization with overlap
     ethr =  1.00E-02,  avg # of iterations =  7.8

     Threshold (ethr) on eigenvalues was too large:
     Diagonalizing with lowered threshold

     Davidson diagonalization with overlap
     ethr =  5.46E-04,  avg # of iterations =  2.2

     negative rho (up, down):  1.245E-04 0.000E+00

     total cpu time spent up to now is       47.2 secs

     total energy              =    -907.80518678 Ry
     estimated scf accuracy    <       0.27404577 Ry

     iteration #  2     ecut=    80.00 Ry     beta= 0.70
     Davidson diagonalization with overlap
     ethr =  5.48E-04,  avg # of iterations =  6.8

     negative rho (up, down):  1.298E-04 0.000E+00

     total cpu time spent up to now is       65.1 secs

     total energy              =    -907.52475751 Ry
     estimated scf accuracy    <       3.38057559 Ry

     iteration #  3     ecut=    80.00 Ry     beta= 0.70
     Davidson diagonalization with overlap
     ethr =  5.48E-04,  avg # of iterations =  7.0

     negative rho (up, down):  1.154E-04 0.000E+00

     total cpu time spent up to now is       82.9 secs

     total energy              =    -907.18934287 Ry
     estimated scf accuracy    <      21.18262188 Ry

     iteration #  4     ecut=    80.00 Ry     beta= 0.70
     Davidson diagonalization with overlap
     ethr =  5.48E-04,  avg # of iterations =  6.5

     negative rho (up, down):  1.166E-04 0.000E+00

     total cpu time spent up to now is       99.4 secs

     total energy              =    -907.88784667 Ry
     estimated scf accuracy    <       1.61860775 Ry

     iteration #  5     ecut=    80.00 Ry     beta= 0.70
     Davidson diagonalization with overlap
     ethr =  5.48E-04,  avg # of iterations =  1.5

     negative rho (up, down):  1.193E-04 0.000E+00

     total cpu time spent up to now is      112.7 secs

     total energy              =    -907.90431633 Ry
     estimated scf accuracy    <       0.11318336 Ry

     iteration #  6     ecut=    80.00 Ry     beta= 0.70
     Davidson diagonalization with overlap
     ethr =  2.26E-04,  avg # of iterations =  2.2

     negative rho (up, down):  1.221E-04 0.000E+00

     total cpu time spent up to now is      126.5 secs

     total energy              =    -907.90813239 Ry
     estimated scf accuracy    <       0.05449311 Ry

     iteration #  7     ecut=    80.00 Ry     beta= 0.70
     Davidson diagonalization with overlap
     ethr =  1.09E-04,  avg # of iterations =  3.5

     negative rho (up, down):  1.258E-04 0.000E+00

     total cpu time spent up to now is      140.7 secs

     total energy              =    -907.90813260 Ry
     estimated scf accuracy    <       0.03233733 Ry

     iteration #  8     ecut=    80.00 Ry     beta= 0.70
     Davidson diagonalization with overlap
     ethr =  6.47E-05,  avg # of iterations =  4.0

     negative rho (up, down):  1.272E-04 0.000E+00

     total cpu time spent up to now is      154.4 secs

     total energy              =    -907.90871670 Ry
     estimated scf accuracy    <       0.22182720 Ry

     iteration #  9     ecut=    80.00 Ry     beta= 0.70
     Davidson diagonalization with overlap
     ethr =  6.47E-05,  avg # of iterations =  1.0

     negative rho (up, down):  1.298E-04 0.000E+00

     total cpu time spent up to now is      166.9 secs

     total energy              =    -907.91133034 Ry
     estimated scf accuracy    <       0.03060591 Ry

     iteration # 10     ecut=    80.00 Ry     beta= 0.70
     Davidson diagonalization with overlap
     ethr =  6.12E-05,  avg # of iterations =  1.0

     negative rho (up, down):  1.295E-04 0.000E+00

     total cpu time spent up to now is      179.5 secs

     total energy              =    -907.91009543 Ry
     estimated scf accuracy    <       0.06464892 Ry

     iteration # 11     ecut=    80.00 Ry     beta= 0.70
     Davidson diagonalization with overlap
     ethr =  6.12E-05,  avg # of iterations =  1.0

     negative rho (up, down):  1.302E-04 0.000E+00

     total cpu time spent up to now is      192.0 secs

     total energy              =    -907.91081897 Ry
     estimated scf accuracy    <       0.04658707 Ry

     iteration # 12     ecut=    80.00 Ry     beta= 0.70
     Davidson diagonalization with overlap
     ethr =  6.12E-05,  avg # of iterations =  1.0

     negative rho (up, down):  1.303E-04 0.000E+00

     total cpu time spent up to now is      204.5 secs

     total energy              =    -907.91114361 Ry
     estimated scf accuracy    <       0.00028083 Ry

     iteration # 13     ecut=    80.00 Ry     beta= 0.70
     Davidson diagonalization with overlap
     ethr =  5.62E-07,  avg # of iterations =  9.0

     negative rho (up, down):  1.303E-04 0.000E+00

     total cpu time spent up to now is      219.6 secs

     total energy              =    -907.91114556 Ry
     estimated scf accuracy    <       0.00000032 Ry

     iteration # 14     ecut=    80.00 Ry     beta= 0.70
     Davidson diagonalization with overlap
     ethr =  6.36E-10,  avg # of iterations =  1.5

     negative rho (up, down):  1.303E-04 0.000E+00

     total cpu time spent up to now is      232.8 secs

     End of self-consistent calculation

          k = 0.0000 0.0000 0.0000 ( 15197 PWs)   bands (ev):

   -51.4711 -51.4602 -27.6543 -27.6535 -27.4448 -27.4448 -27.4366 -27.4366
   -10.3651 -10.2977  -9.0685  -8.9696  -2.1276  -1.8227   0.9520   0.9520
     1.0052   1.0052   1.3867   2.0658   2.0658   2.1101   2.1101   2.1233
     3.8428   4.2745   6.3161   6.3161   6.3592   6.3592   6.4935   6.4935
     6.5225   6.5225   8.5423   8.7094   9.0094   9.6175  11.3515  11.5646
    11.6165  11.9744  13.8427  13.8427  13.8691  13.8691  14.0297  15.7573
    15.7895  15.7895  16.0377  16.0377  16.1205  17.1087  18.0439  18.5125
    18.6562  18.6562  18.7877  19.1656

     occupation numbers 
     1.0000   1.0000   1.0000   1.0000   1.0000   1.0000   1.0000   1.0000
     1.0000   1.0000   1.0000   1.0000   1.0000   1.0000   1.0000   1.0000
     1.0000   1.0000   1.0000   1.0000   1.0000   1.0000   1.0000   1.0000
    -0.0019  -0.0000  -0.0000  -0.0000  -0.0000  -0.0000  -0.0000  -0.0000
    -0.0000  -0.0000  -0.0000  -0.0000  -0.0000  -0.0000  -0.0000  -0.0000
    -0.0000  -0.0000  -0.0000  -0.0000  -0.0000  -0.0000  -0.0000  -0.0000
    -0.0000  -0.0000  -0.0000  -0.0000  -0.0000  -0.0000  -0.0000  -0.0000
    -0.0000  -0.0000  -0.0000  -0.0000

          k = 0.0000 0.2887 0.0000 ( 15197 PWs)   bands (ev):

   -51.4486 -51.4377 -27.6729 -27.6666 -27.6054 -27.6041 -27.4958 -27.4879
    -9.6081  -9.5476  -8.8197  -8.7483  -1.4747  -1.2408  -0.3345  -0.2915
    -0.0027   0.1865   1.1036   1.1474   1.6738   1.7259   1.9576   2.3176
     3.1126   3.1985   5.8335   6.0826   6.1351   6.2255   6.5786   6.8145
     7.4578   7.5210   9.8956  10.3661  10.8631  11.5538  11.8398  12.3034
    12.4016  12.5023  12.9473  13.1207  14.2695  14.8061  14.9590  15.2071
    15.5312  15.6864  15.8531  16.1242  16.5243  16.5631  16.6827  17.1135
    17.3760  17.6325  17.9698  19.0842

     occupation numbers 
     1.0000   1.0000   1.0000   1.0000   1.0000   1.0000   1.0000   1.0000
     1.0000   1.0000   1.0000   1.0000   1.0000   1.0000   1.0000   1.0000
     1.0000   1.0000   1.0000   1.0000   1.0000   1.0000   1.0000   1.0000
     0.7354   0.4795  -0.0000  -0.0000  -0.0000  -0.0000  -0.0000  -0.0000
    -0.0000  -0.0000  -0.0000  -0.0000  -0.0000  -0.0000  -0.0000  -0.0000
    -0.0000  -0.0000  -0.0000  -0.0000  -0.0000  -0.0000  -0.0000  -0.0000
    -0.0000  -0.0000  -0.0000  -0.0000  -0.0000  -0.0000  -0.0000  -0.0000
    -0.0000  -0.0000  -0.0000  -0.0000

          k = 0.0000-0.5774 0.0000 ( 15240 PWs)   bands (ev):

   -51.4260 -51.4149 -27.8922 -27.8876 -27.5561 -27.5542 -27.5462 -27.5386
    -8.6889  -8.6524  -8.5243  -8.4939  -2.0862  -2.0440  -1.1244  -0.9992
    -0.4304  -0.4015   0.4424   0.4894   1.5420   1.8844   2.2986   2.3522
     3.0240   3.1345   6.3727   6.3837   6.7947   6.8153   7.2727   7.5815
     8.0637   8.1856   9.2678   9.7972  11.0321  11.0715  11.4754  11.5644
    12.5109  12.5691  13.1714  13.3914  13.9255  13.9273  14.0481  14.3038
    15.0080  15.0520  16.4046  16.8457  17.6584  17.7146  17.8813  18.6471
    18.8142  19.0689  19.7148  20.0941

     occupation numbers 
     1.0000   1.0000   1.0000   1.0000   1.0000   1.0000   1.0000   1.0000
     1.0000   1.0000   1.0000   1.0000   1.0000   1.0000   1.0000   1.0000
     1.0000   1.0000   1.0000   1.0000   1.0000   1.0000   1.0000   1.0001
     0.9275   0.6743  -0.0000  -0.0000  -0.0000  -0.0000  -0.0000  -0.0000
    -0.0000  -0.0000  -0.0000  -0.0000  -0.0000  -0.0000  -0.0000  -0.0000
    -0.0000  -0.0000  -0.0000  -0.0000  -0.0000  -0.0000  -0.0000  -0.0000
    -0.0000  -0.0000  -0.0000  -0.0000  -0.0000  -0.0000  -0.0000  -0.0000
    -0.0000  -0.0000  -0.0000  -0.0000

          k = 0.2500 0.4330 0.0000 ( 15225 PWs)   bands (ev):

   -51.4260 -51.4150 -27.8107 -27.8056 -27.6318 -27.6247 -27.5562 -27.5543
    -8.7067  -8.6658  -8.5041  -8.4703  -1.4653  -1.3849  -1.2432  -1.2080
    -0.1545  -0.0593   0.3603   0.5162   0.6672   0.6871   1.8394   1.9668
     3.2384   3.2607   5.9676   6.1724   6.7970   6.9007   7.0034   7.1207
     8.3418   8.3853  10.6736  10.8411  11.5404  11.5920  11.7511  12.6182
    12.8416  12.9136  13.0650  13.9546  14.3223  14.4318  14.7251  15.2387
    15.2618  15.3449  15.3945  15.6269  16.1081  16.7034  16.7089  17.3258
    17.4508  17.8617  18.0574  18.8084

     occupation numbers 
     1.0000   1.0000   1.0000   1.0000   1.0000   1.0000   1.0000   1.0000
     1.0000   1.0000   1.0000   1.0000   1.0000   1.0000   1.0000   1.0000
     1.0000   1.0000   1.0000   1.0000   1.0000   1.0000   1.0000   1.0000
     0.3577   0.2934  -0.0000  -0.0000  -0.0000  -0.0000  -0.0000  -0.0000
    -0.0000  -0.0000  -0.0000  -0.0000  -0.0000  -0.0000  -0.0000  -0.0000
    -0.0000  -0.0000  -0.0000  -0.0000  -0.0000  -0.0000  -0.0000  -0.0000
    -0.0000  -0.0000  -0.0000  -0.0000  -0.0000  -0.0000  -0.0000  -0.0000
    -0.0000  -0.0000  -0.0000  -0.0000

     the Fermi energy is     3.1919 ev

!    total energy              =    -907.91114557 Ry

     total all-electron energy =    -18448.320168 Ry
     estimated scf accuracy    <          4.1E-09 Ry
     smearing contrib. (-TS)   =      -0.00846976 Ry
     internal energy E=F+TS    =    -907.90267581 Ry

     The total energy is F=E-TS. E is the sum of the following terms:
     one-electron contribution =   -1048.05462336 Ry
     hartree contribution      =     537.54564505 Ry
     xc contribution           =     -65.32827778 Ry
     ewald contribution        =     256.18108273 Ry
     one-center paw contrib.   =    -588.24650245 Ry
      -> PAW hartree energy AE =      99.48897396 Ry
      -> PAW hartree energy PS =     -98.97449291 Ry
      -> PAW xc energy AE      =    -324.64204528 Ry
      -> PAW xc energy PS      =      30.00513396 Ry
      -> total E_H with PAW    =     538.06012610 Ry
      -> total E_XC with PAW   =    -359.96518910 Ry

     convergence has been achieved in  14 iterations

     Writing output data file ./tmp/NbS2_bi.save/

     init_run     :      5.60s CPU      5.74s WALL (       1 calls)
     electrons    :    221.69s CPU    226.07s WALL (       1 calls)

     Called by init_run:
     wfcinit      :      4.14s CPU      4.18s WALL (       1 calls)
     wfcinit:atom :      0.02s CPU      0.02s WALL (       4 calls)
     wfcinit:wfcr :      4.07s CPU      4.10s WALL (       4 calls)
     potinit      :      0.35s CPU      0.36s WALL (       1 calls)
     hinit0       :      0.64s CPU      0.65s WALL (       1 calls)

     Called by electrons:
     c_bands      :    179.78s CPU    180.95s WALL (      15 calls)
     sum_band     :     33.80s CPU     35.70s WALL (      15 calls)
     v_of_rho     :      0.49s CPU      0.49s WALL (      15 calls)
     v_h          :      0.27s CPU      0.27s WALL (      15 calls)
     v_xc         :      0.22s CPU      0.22s WALL (      15 calls)
     newd         :      5.98s CPU      7.32s WALL (      15 calls)
     PAW_pot      :      0.88s CPU      0.88s WALL (      15 calls)
     mix_rho      :      0.80s CPU      0.83s WALL (      15 calls)

     Called by c_bands:
     init_us_2    :      0.55s CPU      0.57s WALL (     124 calls)
     cegterg      :    178.37s CPU    179.51s WALL (      60 calls)

     Called by sum_band:
     sum_band:wei :      0.01s CPU      0.01s WALL (      15 calls)
     sum_band:loo :     24.77s CPU     24.93s WALL (      15 calls)
     sum_band:buf :      0.23s CPU      0.23s WALL (      60 calls)
     sum_band:ini :      0.28s CPU      0.28s WALL (      60 calls)
     sum_band:cal :      4.85s CPU      4.86s WALL (      60 calls)
     sum_band:bec :      0.01s CPU      0.01s WALL (      60 calls)
     addusdens    :      8.54s CPU     10.25s WALL (      15 calls)
     addusd:skk   :      0.03s CPU      0.05s WALL (      30 calls)
     addusd:dgemm :      3.16s CPU      4.67s WALL (      30 calls)
     addusd:qvan2 :      4.86s CPU      4.86s WALL (      30 calls)

     Called by *egterg:
     cdiaghg      :      1.63s CPU      1.63s WALL (     280 calls)
     cegterg:over :     20.21s CPU     20.21s WALL (     224 calls)
     cegterg:upda :     11.60s CPU     11.65s WALL (     224 calls)
     cegterg:last :     26.69s CPU     26.70s WALL (     104 calls)
     h_psi        :    100.54s CPU    101.52s WALL (     288 calls)
     s_psi        :     11.52s CPU     11.53s WALL (     288 calls)
     g_psi        :      0.17s CPU      0.17s WALL (     224 calls)

     Called by h_psi:
     h_psi:calbec :     11.54s CPU     11.56s WALL (     288 calls)
     vloc_psi     :     76.96s CPU     77.82s WALL (     288 calls)
     add_vuspsi   :     11.59s CPU     11.60s WALL (     288 calls)

     General routines
     calbec       :     16.39s CPU     16.42s WALL (     348 calls)
     fft          :      1.21s CPU      1.23s WALL (      89 calls)
     ffts         :      0.26s CPU      0.26s WALL (      30 calls)
     fftw         :     77.69s CPU     78.58s WALL (   20616 calls)
     interpolate  :      0.38s CPU      0.38s WALL (      15 calls)

     Parallel routines
     fft_scatt_xy :     14.10s CPU     14.29s WALL (   20735 calls)
     fft_scatt_yz :      5.49s CPU      5.57s WALL (   20735 calls)

     PAW routines
     PAW_pot      :      0.88s CPU      0.88s WALL (      15 calls)
     PAW_symme    :      0.02s CPU      0.02s WALL (      30 calls)

     PWSCF        :   3m48.37s CPU   3m53.28s WALL


   This run was terminated on:  16: 9:38  14Jun2021            

=------------------------------------------------------------------------------=
   JOB DONE.
=------------------------------------------------------------------------------=
