
     Program PWSCF v.6.6 starts on 14Jun2021 at 16: 9:39 

     This program is part of the open-source Quantum ESPRESSO suite
     for quantum simulation of materials; please cite
         "P. Giannozzi et al., J. Phys.:Condens. Matter 21 395502 (2009);
         "P. Giannozzi et al., J. Phys.:Condens. Matter 29 465901 (2017);
          URL http://www.quantum-espresso.org", 
     in publications or presentations arising from this work. More details at
     http://www.quantum-espresso.org/quote

     Parallel version (MPI), running on     2 processors

     MPI processes distributed on     1 nodes
     R & G space division:  proc/nbgrp/npool/nimage =       2
     Fft bands division:     nmany     =       1
     Waiting for input...
     Reading input from standard input

     Current dimensions of program PWSCF are:
     Max number of different atomic species (ntypx) = 10
     Max number of k-points (npk) =  40000
     Max angular momentum in pseudopotentials (lmaxx) =  3
     file Nb.pz-spn-kjpaw_psl.1.0.0.UPF: wavefunction(s)  4S 4P 4D renormalized
     file S.pz-n-kjpaw_psl.0.1.UPF: wavefunction(s)  3P renormalized

     Subspace diagonalization in iterative solution of the eigenvalue problem:
     a serial algorithm will be used


     Parallelization info
     --------------------
     sticks:   dense  smooth     PW     G-vecs:    dense   smooth      PW
     Min         534     534    150                85019    85019   12658
     Max         535     535    151                85022    85022   12669
     Sum        1069    1069    301               170041   170041   25327



     bravais-lattice index     =            4
     lattice parameter (alat)  =       6.2006  a.u.
     unit-cell volume          =    1258.4114 (a.u.)^3
     number of atoms/cell      =            6
     number of atomic types    =            2
     number of electrons       =        50.00
     number of Kohn-Sham states=           60
     kinetic-energy cutoff     =     100.0000  Ry
     charge density cutoff     =     400.0000  Ry
     convergence threshold     =      1.0E-08
     mixing beta               =       0.7000
     number of iterations used =            8  plain     mixing
     Exchange-correlation= SLA PZ NOGX NOGC
                           (   1   1   0   0   0   0   0)

     celldm(1)=   6.200569  celldm(2)=   0.000000  celldm(3)=   6.095331
     celldm(4)=   0.000000  celldm(5)=   0.000000  celldm(6)=   0.000000

     crystal axes: (cart. coord. in units of alat)
               a(1) = (   1.000000   0.000000   0.000000 )  
               a(2) = (  -0.500000   0.866025   0.000000 )  
               a(3) = (   0.000000   0.000000   6.095331 )  

     reciprocal axes: (cart. coord. in units 2 pi/alat)
               b(1) = (  1.000000  0.577350 -0.000000 )  
               b(2) = (  0.000000  1.154701  0.000000 )  
               b(3) = (  0.000000 -0.000000  0.164060 )  


     PseudoPot. # 1 for Nb read from file:
     ../Nb.pz-spn-kjpaw_psl.1.0.0.UPF
     MD5 check sum: 38c2e04b3cc915696ca8dc9f46a23270
     Pseudo is Projector augmented-wave + core cor, Zval = 13.0
     Generated using "atomic" code by A. Dal Corso v.6.2.2
     Shape of augmentation charge: PSQ
     Using radial grid of 1227 points,  6 beta functions with: 
                l(1) =   0
                l(2) =   0
                l(3) =   1
                l(4) =   1
                l(5) =   2
                l(6) =   2
     Q(r) pseudized with 0 coefficients 


     PseudoPot. # 2 for S  read from file:
     ../S.pz-n-kjpaw_psl.0.1.UPF
     MD5 check sum: c0b1682311cf098e03f7841691d9a679
     Pseudo is Projector augmented-wave + core cor, Zval =  6.0
     Generated using "atomic" code by A. Dal Corso v.5.0.2 svn rev. 9415
     Shape of augmentation charge: PSQ
     Using radial grid of 1151 points,  4 beta functions with: 
                l(1) =   0
                l(2) =   0
                l(3) =   1
                l(4) =   1
     Q(r) pseudized with 0 coefficients 


     atomic species   valence    mass     pseudopotential
        Nb            13.00    92.90600     Nb( 1.00)
        S              6.00    32.06500     S ( 1.00)

      6 Sym. Ops. (no inversion) found


                                    s                        frac. trans.

      isym =  1     identity                                     

 cryst.   s( 1) = (     1          0          0      )
                  (     0          1          0      )
                  (     0          0          1      )

 cart.    s( 1) = (  1.0000000  0.0000000  0.0000000 )
                  (  0.0000000  1.0000000  0.0000000 )
                  (  0.0000000  0.0000000  1.0000000 )


      isym =  2     120 deg rotation - cryst. axis [0,0,1]       

 cryst.   s( 2) = (     0          1          0      )
                  (    -1         -1          0      )
                  (     0          0          1      )

 cart.    s( 2) = ( -0.5000000 -0.8660254  0.0000000 )
                  (  0.8660254 -0.5000000  0.0000000 )
                  (  0.0000000  0.0000000  1.0000000 )


      isym =  3     120 deg rotation - cryst. axis [0,0,-1]      

 cryst.   s( 3) = (    -1         -1          0      )
                  (     1          0          0      )
                  (     0          0          1      )

 cart.    s( 3) = ( -0.5000000  0.8660254  0.0000000 )
                  ( -0.8660254 -0.5000000  0.0000000 )
                  (  0.0000000  0.0000000  1.0000000 )


      isym =  4     inv. 180 deg rotation - cart. axis [1,0,0]   

 cryst.   s( 4) = (    -1          0          0      )
                  (     1          1          0      )
                  (     0          0          1      )

 cart.    s( 4) = ( -1.0000000  0.0000000  0.0000000 )
                  (  0.0000000  1.0000000  0.0000000 )
                  (  0.0000000  0.0000000  1.0000000 )


      isym =  5     inv. 180 deg rotation - cryst. axis [0,1,0]  

 cryst.   s( 5) = (     1          1          0      )
                  (     0         -1          0      )
                  (     0          0          1      )

 cart.    s( 5) = (  0.5000000  0.8660254  0.0000000 )
                  (  0.8660254 -0.5000000  0.0000000 )
                  (  0.0000000  0.0000000  1.0000000 )


      isym =  6     inv. 180 deg rotation - cryst. axis [1,1,0]  

 cryst.   s( 6) = (     0         -1          0      )
                  (    -1          0          0      )
                  (     0          0          1      )

 cart.    s( 6) = (  0.5000000 -0.8660254  0.0000000 )
                  ( -0.8660254 -0.5000000  0.0000000 )
                  (  0.0000000  0.0000000  1.0000000 )


     point group C_3v (3m)  
     there are  3 classes
     the character table:

       E     2C3   3s_v 
A_1    1.00  1.00  1.00
A_2    1.00  1.00 -1.00
E      2.00 -1.00  0.00

     the symmetry operations in each class and the name of the first element:

     E        1
          identity                                               
     2C3      2    3
          120 deg rotation - cryst. axis [0,0,1]                 
     3s_v     4    5    6
          inv. 180 deg rotation - cart. axis [1,0,0]             

   Cartesian axes

     site n.     atom                  positions (alat units)
         1           S   tau(   1) = (   0.0000000   0.5773503   1.4932768  )
         2           Nb  tau(   2) = (   0.0000000   0.0000000   1.0094618  )
         3           S   tau(   3) = (   0.0000000   0.5773503   0.5321904  )
         4           S   tau(   4) = (   0.5000000   0.2886751   2.5511139  )
         5           Nb  tau(   5) = (   0.0000000   0.0000000   3.0283905  )
         6           S   tau(   6) = (   0.5000000   0.2886751   3.5056620  )

   Crystallographic axes

     site n.     atom                  positions (cryst. coord.)
         1           S   tau(   1) = (  0.3333333  0.6666667  0.2449870  )
         2           Nb  tau(   2) = (  0.0000000  0.0000000  0.1656123  )
         3           S   tau(   3) = (  0.3333333  0.6666667  0.0873112  )
         4           S   tau(   4) = (  0.6666667  0.3333333  0.4185358  )
         5           Nb  tau(   5) = (  0.0000000  0.0000000  0.4968378  )
         6           S   tau(   6) = (  0.6666667  0.3333333  0.5751389  )

     number of k points=     4  Methfessel-Paxton smearing, width (Ry)=  0.0200
                       cart. coord. in units 2pi/alat
        k(    1) = (   0.0000000   0.0000000   0.0000000), wk =   0.1250000
        k(    2) = (   0.0000000   0.2886751   0.0000000), wk =   0.7500000
        k(    3) = (   0.0000000  -0.5773503   0.0000000), wk =   0.3750000
        k(    4) = (   0.2500000   0.4330127   0.0000000), wk =   0.7500000

                       cryst. coord.
        k(    1) = (   0.0000000   0.0000000   0.0000000), wk =   0.1250000
        k(    2) = (   0.0000000   0.2500000   0.0000000), wk =   0.7500000
        k(    3) = (   0.0000000  -0.5000000   0.0000000), wk =   0.3750000
        k(    4) = (   0.2500000   0.2500000   0.0000000), wk =   0.7500000

     Dense  grid:   170041 G-vectors     FFT dimensions: (  40,  40, 243)

     Dynamical RAM for                 wfc:       9.73 MB

     Dynamical RAM for     wfc (w. buffer):      48.64 MB

     Dynamical RAM for           str. fact:       2.59 MB

     Dynamical RAM for           local pot:       0.00 MB

     Dynamical RAM for          nlocal pot:      11.02 MB

     Dynamical RAM for                qrad:       3.21 MB

     Dynamical RAM for          rho,v,vnew:       8.36 MB

     Dynamical RAM for               rhoin:       2.79 MB

     Dynamical RAM for            rho*nmix:      20.76 MB

     Dynamical RAM for           G-vectors:       5.51 MB

     Dynamical RAM for          h,s,v(r/c):       0.66 MB

     Dynamical RAM for          <psi|beta>:       0.06 MB

     Dynamical RAM for                 psi:      19.45 MB

     Dynamical RAM for                hpsi:      19.45 MB

     Dynamical RAM for                spsi:      19.45 MB

     Dynamical RAM for      wfcinit/wfcrot:      19.54 MB

     Dynamical RAM for           addusdens:     246.48 MB

     Estimated static dynamical RAM per process >     114.22 MB

     Estimated max dynamical RAM per process >     360.71 MB

     Estimated total dynamical RAM >     721.41 MB

     Initial potential from superposition of free atoms

     starting charge   49.99775, renormalised to   50.00000

     negative rho (up, down):  7.872E-05 0.000E+00
     Starting wfcs are   42 randomized atomic wfcs +   18 random wfcs
     Checking if some PAW data can be deallocated... 

     total cpu time spent up to now is        8.9 secs

     Self-consistent Calculation

     iteration #  1     ecut=   100.00 Ry     beta= 0.70
     Davidson diagonalization with overlap
     ethr =  1.00E-02,  avg # of iterations =  8.0

     Threshold (ethr) on eigenvalues was too large:
     Diagonalizing with lowered threshold

     Davidson diagonalization with overlap
     ethr =  5.47E-04,  avg # of iterations =  2.8

     negative rho (up, down):  1.244E-04 0.000E+00

     total cpu time spent up to now is       68.7 secs

     total energy              =    -907.80601431 Ry
     estimated scf accuracy    <       0.27411064 Ry

     iteration #  2     ecut=   100.00 Ry     beta= 0.70
     Davidson diagonalization with overlap
     ethr =  5.48E-04,  avg # of iterations =  7.0

     negative rho (up, down):  1.206E-04 0.000E+00

     total cpu time spent up to now is       95.0 secs

     total energy              =    -907.52547655 Ry
     estimated scf accuracy    <       3.38104059 Ry

     iteration #  3     ecut=   100.00 Ry     beta= 0.70
     Davidson diagonalization with overlap
     ethr =  5.48E-04,  avg # of iterations =  8.0

     negative rho (up, down):  1.091E-04 0.000E+00

     total cpu time spent up to now is      121.2 secs

     total energy              =    -907.18833208 Ry
     estimated scf accuracy    <      21.24656129 Ry

     iteration #  4     ecut=   100.00 Ry     beta= 0.70
     Davidson diagonalization with overlap
     ethr =  5.48E-04,  avg # of iterations =  6.2

     negative rho (up, down):  1.105E-04 0.000E+00

     total cpu time spent up to now is      145.5 secs

     total energy              =    -907.88870006 Ry
     estimated scf accuracy    <       1.62162121 Ry

     iteration #  5     ecut=   100.00 Ry     beta= 0.70
     Davidson diagonalization with overlap
     ethr =  5.48E-04,  avg # of iterations =  1.5

     negative rho (up, down):  1.144E-04 0.000E+00

     total cpu time spent up to now is      164.8 secs

     total energy              =    -907.90516625 Ry
     estimated scf accuracy    <       0.11533046 Ry

     iteration #  6     ecut=   100.00 Ry     beta= 0.70
     Davidson diagonalization with overlap
     ethr =  2.31E-04,  avg # of iterations =  2.2

     negative rho (up, down):  1.188E-04 0.000E+00

     total cpu time spent up to now is      184.8 secs

     total energy              =    -907.90901739 Ry
     estimated scf accuracy    <       0.05447946 Ry

     iteration #  7     ecut=   100.00 Ry     beta= 0.70
     Davidson diagonalization with overlap
     ethr =  1.09E-04,  avg # of iterations =  3.0

     negative rho (up, down):  1.244E-04 0.000E+00

     total cpu time spent up to now is      204.9 secs

     total energy              =    -907.90902590 Ry
     estimated scf accuracy    <       0.03209604 Ry

     iteration #  8     ecut=   100.00 Ry     beta= 0.70
     Davidson diagonalization with overlap
     ethr =  6.42E-05,  avg # of iterations =  3.8

     negative rho (up, down):  1.261E-04 0.000E+00

     total cpu time spent up to now is      224.8 secs

     total energy              =    -907.90960989 Ry
     estimated scf accuracy    <       0.22380841 Ry

     iteration #  9     ecut=   100.00 Ry     beta= 0.70
     Davidson diagonalization with overlap
     ethr =  6.42E-05,  avg # of iterations =  1.0

     negative rho (up, down):  1.297E-04 0.000E+00

     total cpu time spent up to now is      243.0 secs

     total energy              =    -907.91221329 Ry
     estimated scf accuracy    <       0.02910584 Ry

     iteration # 10     ecut=   100.00 Ry     beta= 0.70
     Davidson diagonalization with overlap
     ethr =  5.82E-05,  avg # of iterations =  1.0

     negative rho (up, down):  1.293E-04 0.000E+00

     total cpu time spent up to now is      261.2 secs

     total energy              =    -907.91097083 Ry
     estimated scf accuracy    <       0.06548554 Ry

     iteration # 11     ecut=   100.00 Ry     beta= 0.70
     Davidson diagonalization with overlap
     ethr =  5.82E-05,  avg # of iterations =  1.0

     negative rho (up, down):  1.301E-04 0.000E+00

     total cpu time spent up to now is      279.3 secs

     total energy              =    -907.91170355 Ry
     estimated scf accuracy    <       0.04645250 Ry

     iteration # 12     ecut=   100.00 Ry     beta= 0.70
     Davidson diagonalization with overlap
     ethr =  5.82E-05,  avg # of iterations =  1.0

     negative rho (up, down):  1.302E-04 0.000E+00

     total cpu time spent up to now is      297.6 secs

     total energy              =    -907.91202716 Ry
     estimated scf accuracy    <       0.00027831 Ry

     iteration # 13     ecut=   100.00 Ry     beta= 0.70
     Davidson diagonalization with overlap
     c_bands:  1 eigenvalues not converged
     ethr =  5.57E-07,  avg # of iterations = 10.5

     negative rho (up, down):  1.302E-04 0.000E+00

     total cpu time spent up to now is      319.9 secs

     total energy              =    -907.91202910 Ry
     estimated scf accuracy    <       0.00000032 Ry

     iteration # 14     ecut=   100.00 Ry     beta= 0.70
     Davidson diagonalization with overlap
     ethr =  6.41E-10,  avg # of iterations =  1.8

     negative rho (up, down):  1.302E-04 0.000E+00

     total cpu time spent up to now is      339.7 secs

     End of self-consistent calculation

          k = 0.0000 0.0000 0.0000 ( 21157 PWs)   bands (ev):

   -51.4730 -51.4622 -27.6545 -27.6537 -27.4450 -27.4450 -27.4368 -27.4368
   -10.3651 -10.2977  -9.0685  -8.9696  -2.1276  -1.8227   0.9520   0.9520
     1.0052   1.0052   1.3867   2.0657   2.0657   2.1100   2.1100   2.1233
     3.8428   4.2745   6.3160   6.3160   6.3591   6.3591   6.4934   6.4934
     6.5224   6.5224   8.5423   8.7095   9.0094   9.6175  11.3515  11.5646
    11.6165  11.9744  13.8427  13.8427  13.8691  13.8691  14.0297  15.7573
    15.7894  15.7895  16.0377  16.0377  16.1204  17.1087  18.0439  18.5126
    18.6561  18.6561  18.7877  19.1656

     occupation numbers 
     1.0000   1.0000   1.0000   1.0000   1.0000   1.0000   1.0000   1.0000
     1.0000   1.0000   1.0000   1.0000   1.0000   1.0000   1.0000   1.0000
     1.0000   1.0000   1.0000   1.0000   1.0000   1.0000   1.0000   1.0000
    -0.0019  -0.0000  -0.0000  -0.0000  -0.0000  -0.0000  -0.0000  -0.0000
    -0.0000  -0.0000  -0.0000  -0.0000  -0.0000  -0.0000  -0.0000  -0.0000
    -0.0000  -0.0000  -0.0000  -0.0000  -0.0000  -0.0000  -0.0000  -0.0000
    -0.0000  -0.0000  -0.0000  -0.0000  -0.0000  -0.0000  -0.0000  -0.0000
    -0.0000  -0.0000  -0.0000  -0.0000

          k = 0.0000 0.2887 0.0000 ( 21261 PWs)   bands (ev):

   -51.4506 -51.4396 -27.6731 -27.6668 -27.6056 -27.6043 -27.4960 -27.4881
    -9.6082  -9.5476  -8.8197  -8.7483  -1.4747  -1.2408  -0.3346  -0.2915
    -0.0027   0.1864   1.1036   1.1474   1.6737   1.7259   1.9576   2.3176
     3.1126   3.1985   5.8334   6.0825   6.1350   6.2254   6.5785   6.8144
     7.4577   7.5209   9.8956  10.3661  10.8631  11.5538  11.8398  12.3034
    12.4016  12.5023  12.9473  13.1207  14.2695  14.8061  14.9589  15.2071
    15.5312  15.6864  15.8531  16.1242  16.5242  16.5631  16.6827  17.1135
    17.3760  17.6324  17.9697  19.0842

     occupation numbers 
     1.0000   1.0000   1.0000   1.0000   1.0000   1.0000   1.0000   1.0000
     1.0000   1.0000   1.0000   1.0000   1.0000   1.0000   1.0000   1.0000
     1.0000   1.0000   1.0000   1.0000   1.0000   1.0000   1.0000   1.0000
     0.7354   0.4795  -0.0000  -0.0000  -0.0000  -0.0000  -0.0000  -0.0000
    -0.0000  -0.0000  -0.0000  -0.0000  -0.0000  -0.0000  -0.0000  -0.0000
    -0.0000  -0.0000  -0.0000  -0.0000  -0.0000  -0.0000  -0.0000  -0.0000
    -0.0000  -0.0000  -0.0000  -0.0000  -0.0000  -0.0000  -0.0000  -0.0000
    -0.0000  -0.0000  -0.0000  -0.0000

          k = 0.0000-0.5774 0.0000 ( 21280 PWs)   bands (ev):

   -51.4280 -51.4169 -27.8924 -27.8878 -27.5563 -27.5544 -27.5464 -27.5388
    -8.6890  -8.6524  -8.5244  -8.4939  -2.0862  -2.0440  -1.1244  -0.9992
    -0.4304  -0.4015   0.4423   0.4894   1.5419   1.8843   2.2986   2.3522
     3.0240   3.1345   6.3726   6.3836   6.7945   6.8151   7.2726   7.5814
     8.0635   8.1855   9.2678   9.7972  11.0321  11.0714  11.4753  11.5644
    12.5108  12.5690  13.1714  13.3913  13.9255  13.9272  14.0481  14.3038
    15.0080  15.0520  16.4045  16.8457  17.6583  17.7146  17.8812  18.6471
    18.8140  19.0689  19.7142  19.9879

     occupation numbers 
     1.0000   1.0000   1.0000   1.0000   1.0000   1.0000   1.0000   1.0000
     1.0000   1.0000   1.0000   1.0000   1.0000   1.0000   1.0000   1.0000
     1.0000   1.0000   1.0000   1.0000   1.0000   1.0000   1.0000   1.0001
     0.9275   0.6743  -0.0000  -0.0000  -0.0000  -0.0000  -0.0000  -0.0000
    -0.0000  -0.0000  -0.0000  -0.0000  -0.0000  -0.0000  -0.0000  -0.0000
    -0.0000  -0.0000  -0.0000  -0.0000  -0.0000  -0.0000  -0.0000  -0.0000
    -0.0000  -0.0000  -0.0000  -0.0000  -0.0000  -0.0000  -0.0000  -0.0000
    -0.0000  -0.0000  -0.0000  -0.0000

          k = 0.2500 0.4330 0.0000 ( 21256 PWs)   bands (ev):

   -51.4280 -51.4169 -27.8109 -27.8058 -27.6319 -27.6249 -27.5564 -27.5545
    -8.7067  -8.6658  -8.5041  -8.4703  -1.4653  -1.3849  -1.2432  -1.2080
    -0.1545  -0.0594   0.3603   0.5162   0.6672   0.6871   1.8394   1.9668
     3.2384   3.2607   5.9675   6.1723   6.7968   6.9006   7.0033   7.1206
     8.3417   8.3852  10.6735  10.8411  11.5404  11.5919  11.7511  12.6182
    12.8416  12.9136  13.0650  13.9546  14.3222  14.4318  14.7250  15.2386
    15.2618  15.3449  15.3945  15.6269  16.1081  16.7033  16.7089  17.3258
    17.4508  17.8617  18.0574  18.8083

     occupation numbers 
     1.0000   1.0000   1.0000   1.0000   1.0000   1.0000   1.0000   1.0000
     1.0000   1.0000   1.0000   1.0000   1.0000   1.0000   1.0000   1.0000
     1.0000   1.0000   1.0000   1.0000   1.0000   1.0000   1.0000   1.0000
     0.3577   0.2934  -0.0000  -0.0000  -0.0000  -0.0000  -0.0000  -0.0000
    -0.0000  -0.0000  -0.0000  -0.0000  -0.0000  -0.0000  -0.0000  -0.0000
    -0.0000  -0.0000  -0.0000  -0.0000  -0.0000  -0.0000  -0.0000  -0.0000
    -0.0000  -0.0000  -0.0000  -0.0000  -0.0000  -0.0000  -0.0000  -0.0000
    -0.0000  -0.0000  -0.0000  -0.0000

     the Fermi energy is     3.1919 ev

!    total energy              =    -907.91202911 Ry

     total all-electron energy =    -18448.321051 Ry
     estimated scf accuracy    <          3.9E-09 Ry
     smearing contrib. (-TS)   =      -0.00846996 Ry
     internal energy E=F+TS    =    -907.90355915 Ry

     The total energy is F=E-TS. E is the sum of the following terms:
     one-electron contribution =   -1048.05616527 Ry
     hartree contribution      =     537.54558371 Ry
     xc contribution           =     -65.32804829 Ry
     ewald contribution        =     256.18108273 Ry
     one-center paw contrib.   =    -588.24601204 Ry
      -> PAW hartree energy AE =      99.36272415 Ry
      -> PAW hartree energy PS =     -98.84809506 Ry
      -> PAW xc energy AE      =    -324.62830974 Ry
      -> PAW xc energy PS      =      29.99149555 Ry
      -> total E_H with PAW    =     538.06021280 Ry
      -> total E_XC with PAW   =    -359.96486247 Ry

     convergence has been achieved in  14 iterations

     Writing output data file ./tmp/NbS2_bi.save/

     init_run     :      7.67s CPU      7.89s WALL (       1 calls)
     electrons    :    325.42s CPU    330.89s WALL (       1 calls)

     Called by init_run:
     wfcinit      :      6.28s CPU      6.36s WALL (       1 calls)
     wfcinit:atom :      0.02s CPU      0.03s WALL (       4 calls)
     wfcinit:wfcr :      6.17s CPU      6.23s WALL (       4 calls)
     potinit      :      0.31s CPU      0.32s WALL (       1 calls)
     hinit0       :      0.66s CPU      0.67s WALL (       1 calls)

     Called by electrons:
     c_bands      :    270.88s CPU    273.16s WALL (      15 calls)
     sum_band     :     46.93s CPU     48.85s WALL (      15 calls)
     v_of_rho     :      0.48s CPU      0.49s WALL (      15 calls)
     v_h          :      0.26s CPU      0.27s WALL (      15 calls)
     v_xc         :      0.22s CPU      0.22s WALL (      15 calls)
     newd         :      5.84s CPU      7.17s WALL (      15 calls)
     PAW_pot      :      0.89s CPU      0.89s WALL (      15 calls)
     mix_rho      :      0.77s CPU      0.78s WALL (      15 calls)

     Called by c_bands:
     init_us_2    :      0.80s CPU      0.80s WALL (     124 calls)
     cegterg      :    268.90s CPU    271.12s WALL (      60 calls)

     Called by sum_band:
     sum_band:wei :      0.01s CPU      0.01s WALL (      15 calls)
     sum_band:loo :     38.06s CPU     38.34s WALL (      15 calls)
     sum_band:buf :      0.32s CPU      0.32s WALL (      60 calls)
     sum_band:ini :      0.39s CPU      0.39s WALL (      60 calls)
     sum_band:cal :      7.09s CPU      7.10s WALL (      60 calls)
     sum_band:bec :      0.01s CPU      0.01s WALL (      60 calls)
     addusdens    :      8.30s CPU      9.90s WALL (      15 calls)
     addusd:skk   :      0.04s CPU      0.05s WALL (      30 calls)
     addusd:dgemm :      3.32s CPU      4.73s WALL (      30 calls)
     addusd:qvan2 :      4.44s CPU      4.44s WALL (      30 calls)

     Called by *egterg:
     cdiaghg      :      1.72s CPU      1.72s WALL (     291 calls)
     cegterg:over :     29.85s CPU     29.88s WALL (     235 calls)
     cegterg:upda :     17.48s CPU     17.51s WALL (     235 calls)
     cegterg:last :     38.90s CPU     38.91s WALL (     104 calls)
     h_psi        :    154.78s CPU    156.41s WALL (     299 calls)
     s_psi        :     17.12s CPU     17.17s WALL (     299 calls)
     g_psi        :      0.25s CPU      0.25s WALL (     235 calls)

     Called by h_psi:
     h_psi:calbec :     16.84s CPU     16.87s WALL (     299 calls)
     vloc_psi     :    120.27s CPU    121.59s WALL (     299 calls)
     add_vuspsi   :     17.17s CPU     17.17s WALL (     299 calls)

     General routines
     calbec       :     23.92s CPU     23.97s WALL (     359 calls)
     fft          :      0.83s CPU      0.85s WALL (      61 calls)
     ffts         :      0.20s CPU      0.21s WALL (      15 calls)
     fftw         :    122.96s CPU    124.32s WALL (   20674 calls)

     Parallel routines
     fft_scatt_xy :     22.60s CPU     22.81s WALL (   20750 calls)
     fft_scatt_yz :      9.26s CPU      9.48s WALL (   20750 calls)

     PAW routines
     PAW_pot      :      0.89s CPU      0.89s WALL (      15 calls)
     PAW_symme    :      0.00s CPU      0.00s WALL (      30 calls)

     PWSCF        :   5m34.23s CPU   5m40.40s WALL


   This run was terminated on:  16:15:19  14Jun2021            

=------------------------------------------------------------------------------=
   JOB DONE.
=------------------------------------------------------------------------------=
