
     Program PWSCF v.6.6 starts on 14Jun2021 at 15:50:53 

     This program is part of the open-source Quantum ESPRESSO suite
     for quantum simulation of materials; please cite
         "P. Giannozzi et al., J. Phys.:Condens. Matter 21 395502 (2009);
         "P. Giannozzi et al., J. Phys.:Condens. Matter 29 465901 (2017);
          URL http://www.quantum-espresso.org", 
     in publications or presentations arising from this work. More details at
     http://www.quantum-espresso.org/quote

     Parallel version (MPI), running on     2 processors

     MPI processes distributed on     1 nodes
     R & G space division:  proc/nbgrp/npool/nimage =       2
     Fft bands division:     nmany     =       1
     Waiting for input...
     Reading input from standard input

     Current dimensions of program PWSCF are:
     Max number of different atomic species (ntypx) = 10
     Max number of k-points (npk) =  40000
     Max angular momentum in pseudopotentials (lmaxx) =  3
     file Nb.pz-spn-kjpaw_psl.1.0.0.UPF: wavefunction(s)  4S 4P 4D renormalized
     file S.pz-n-kjpaw_psl.0.1.UPF: wavefunction(s)  3P renormalized

     Subspace diagonalization in iterative solution of the eigenvalue problem:
     a serial algorithm will be used


     Parallelization info
     --------------------
     sticks:   dense  smooth     PW     G-vecs:    dense   smooth      PW
     Min         534      54     18                85019     2708     556
     Max         535      55     19                85022     2721     569
     Sum        1069     109     37               170041     5429    1125



     bravais-lattice index     =            4
     lattice parameter (alat)  =       6.2006  a.u.
     unit-cell volume          =    1258.4114 (a.u.)^3
     number of atoms/cell      =            6
     number of atomic types    =            2
     number of electrons       =        50.00
     number of Kohn-Sham states=           60
     kinetic-energy cutoff     =      10.0000  Ry
     charge density cutoff     =     400.0000  Ry
     convergence threshold     =      1.0E-08
     mixing beta               =       0.7000
     number of iterations used =            8  plain     mixing
     Exchange-correlation= SLA PZ NOGX NOGC
                           (   1   1   0   0   0   0   0)

     celldm(1)=   6.200569  celldm(2)=   0.000000  celldm(3)=   6.095331
     celldm(4)=   0.000000  celldm(5)=   0.000000  celldm(6)=   0.000000

     crystal axes: (cart. coord. in units of alat)
               a(1) = (   1.000000   0.000000   0.000000 )  
               a(2) = (  -0.500000   0.866025   0.000000 )  
               a(3) = (   0.000000   0.000000   6.095331 )  

     reciprocal axes: (cart. coord. in units 2 pi/alat)
               b(1) = (  1.000000  0.577350 -0.000000 )  
               b(2) = (  0.000000  1.154701  0.000000 )  
               b(3) = (  0.000000 -0.000000  0.164060 )  


     PseudoPot. # 1 for Nb read from file:
     ../Nb.pz-spn-kjpaw_psl.1.0.0.UPF
     MD5 check sum: 38c2e04b3cc915696ca8dc9f46a23270
     Pseudo is Projector augmented-wave + core cor, Zval = 13.0
     Generated using "atomic" code by A. Dal Corso v.6.2.2
     Shape of augmentation charge: PSQ
     Using radial grid of 1227 points,  6 beta functions with: 
                l(1) =   0
                l(2) =   0
                l(3) =   1
                l(4) =   1
                l(5) =   2
                l(6) =   2
     Q(r) pseudized with 0 coefficients 


     PseudoPot. # 2 for S  read from file:
     ../S.pz-n-kjpaw_psl.0.1.UPF
     MD5 check sum: c0b1682311cf098e03f7841691d9a679
     Pseudo is Projector augmented-wave + core cor, Zval =  6.0
     Generated using "atomic" code by A. Dal Corso v.5.0.2 svn rev. 9415
     Shape of augmentation charge: PSQ
     Using radial grid of 1151 points,  4 beta functions with: 
                l(1) =   0
                l(2) =   0
                l(3) =   1
                l(4) =   1
     Q(r) pseudized with 0 coefficients 


     atomic species   valence    mass     pseudopotential
        Nb            13.00    92.90600     Nb( 1.00)
        S              6.00    32.06500     S ( 1.00)

      6 Sym. Ops. (no inversion) found


                                    s                        frac. trans.

      isym =  1     identity                                     

 cryst.   s( 1) = (     1          0          0      )
                  (     0          1          0      )
                  (     0          0          1      )

 cart.    s( 1) = (  1.0000000  0.0000000  0.0000000 )
                  (  0.0000000  1.0000000  0.0000000 )
                  (  0.0000000  0.0000000  1.0000000 )


      isym =  2     120 deg rotation - cryst. axis [0,0,1]       

 cryst.   s( 2) = (     0          1          0      )
                  (    -1         -1          0      )
                  (     0          0          1      )

 cart.    s( 2) = ( -0.5000000 -0.8660254  0.0000000 )
                  (  0.8660254 -0.5000000  0.0000000 )
                  (  0.0000000  0.0000000  1.0000000 )


      isym =  3     120 deg rotation - cryst. axis [0,0,-1]      

 cryst.   s( 3) = (    -1         -1          0      )
                  (     1          0          0      )
                  (     0          0          1      )

 cart.    s( 3) = ( -0.5000000  0.8660254  0.0000000 )
                  ( -0.8660254 -0.5000000  0.0000000 )
                  (  0.0000000  0.0000000  1.0000000 )


      isym =  4     inv. 180 deg rotation - cart. axis [1,0,0]   

 cryst.   s( 4) = (    -1          0          0      )
                  (     1          1          0      )
                  (     0          0          1      )

 cart.    s( 4) = ( -1.0000000  0.0000000  0.0000000 )
                  (  0.0000000  1.0000000  0.0000000 )
                  (  0.0000000  0.0000000  1.0000000 )


      isym =  5     inv. 180 deg rotation - cryst. axis [0,1,0]  

 cryst.   s( 5) = (     1          1          0      )
                  (     0         -1          0      )
                  (     0          0          1      )

 cart.    s( 5) = (  0.5000000  0.8660254  0.0000000 )
                  (  0.8660254 -0.5000000  0.0000000 )
                  (  0.0000000  0.0000000  1.0000000 )


      isym =  6     inv. 180 deg rotation - cryst. axis [1,1,0]  

 cryst.   s( 6) = (     0         -1          0      )
                  (    -1          0          0      )
                  (     0          0          1      )

 cart.    s( 6) = (  0.5000000 -0.8660254  0.0000000 )
                  ( -0.8660254 -0.5000000  0.0000000 )
                  (  0.0000000  0.0000000  1.0000000 )


     point group C_3v (3m)  
     there are  3 classes
     the character table:

       E     2C3   3s_v 
A_1    1.00  1.00  1.00
A_2    1.00  1.00 -1.00
E      2.00 -1.00  0.00

     the symmetry operations in each class and the name of the first element:

     E        1
          identity                                               
     2C3      2    3
          120 deg rotation - cryst. axis [0,0,1]                 
     3s_v     4    5    6
          inv. 180 deg rotation - cart. axis [1,0,0]             

   Cartesian axes

     site n.     atom                  positions (alat units)
         1           S   tau(   1) = (   0.0000000   0.5773503   1.4932768  )
         2           Nb  tau(   2) = (   0.0000000   0.0000000   1.0094618  )
         3           S   tau(   3) = (   0.0000000   0.5773503   0.5321904  )
         4           S   tau(   4) = (   0.5000000   0.2886751   2.5511139  )
         5           Nb  tau(   5) = (   0.0000000   0.0000000   3.0283905  )
         6           S   tau(   6) = (   0.5000000   0.2886751   3.5056620  )

   Crystallographic axes

     site n.     atom                  positions (cryst. coord.)
         1           S   tau(   1) = (  0.3333333  0.6666667  0.2449870  )
         2           Nb  tau(   2) = (  0.0000000  0.0000000  0.1656123  )
         3           S   tau(   3) = (  0.3333333  0.6666667  0.0873112  )
         4           S   tau(   4) = (  0.6666667  0.3333333  0.4185358  )
         5           Nb  tau(   5) = (  0.0000000  0.0000000  0.4968378  )
         6           S   tau(   6) = (  0.6666667  0.3333333  0.5751389  )

     number of k points=     4  Methfessel-Paxton smearing, width (Ry)=  0.0200
                       cart. coord. in units 2pi/alat
        k(    1) = (   0.0000000   0.0000000   0.0000000), wk =   0.1250000
        k(    2) = (   0.0000000   0.2886751   0.0000000), wk =   0.7500000
        k(    3) = (   0.0000000  -0.5773503   0.0000000), wk =   0.3750000
        k(    4) = (   0.2500000   0.4330127   0.0000000), wk =   0.7500000

                       cryst. coord.
        k(    1) = (   0.0000000   0.0000000   0.0000000), wk =   0.1250000
        k(    2) = (   0.0000000   0.2500000   0.0000000), wk =   0.7500000
        k(    3) = (   0.0000000  -0.5000000   0.0000000), wk =   0.3750000
        k(    4) = (   0.2500000   0.2500000   0.0000000), wk =   0.7500000

     Dense  grid:   170041 G-vectors     FFT dimensions: (  40,  40, 243)

     Smooth grid:     5429 G-vectors     FFT dimensions: (  15,  15,  80)

     Dynamical RAM for                 wfc:       0.31 MB

     Dynamical RAM for     wfc (w. buffer):       1.54 MB

     Dynamical RAM for           str. fact:       2.59 MB

     Dynamical RAM for           local pot:       0.00 MB

     Dynamical RAM for          nlocal pot:       0.35 MB

     Dynamical RAM for                qrad:       3.21 MB

     Dynamical RAM for          rho,v,vnew:       8.36 MB

     Dynamical RAM for               rhoin:       2.79 MB

     Dynamical RAM for            rho*nmix:      20.76 MB

     Dynamical RAM for           G-vectors:       4.89 MB

     Dynamical RAM for          h,s,v(r/c):       0.66 MB

     Dynamical RAM for          <psi|beta>:       0.06 MB

     Dynamical RAM for                 psi:       0.62 MB

     Dynamical RAM for                hpsi:       0.62 MB

     Dynamical RAM for                spsi:       0.62 MB

     Dynamical RAM for      wfcinit/wfcrot:       0.70 MB

     Dynamical RAM for           addusdens:     246.48 MB

     Estimated static dynamical RAM per process >      55.82 MB

     Estimated max dynamical RAM per process >     302.30 MB

     Estimated total dynamical RAM >     604.61 MB

     Initial potential from superposition of free atoms

     starting charge   49.99775, renormalised to   50.00000

     negative rho (up, down):  7.872E-05 0.000E+00
     Starting wfcs are   42 randomized atomic wfcs +   18 random wfcs
     Checking if some PAW data can be deallocated... 

     total cpu time spent up to now is        3.0 secs

     Self-consistent Calculation

     iteration #  1     ecut=    10.00 Ry     beta= 0.70
     Davidson diagonalization with overlap
     ethr =  1.00E-02,  avg # of iterations =  6.8

     total cpu time spent up to now is        5.1 secs

     total energy              =    -897.77524130 Ry
     estimated scf accuracy    <       3.69147645 Ry

     iteration #  2     ecut=    10.00 Ry     beta= 0.70
     Davidson diagonalization with overlap
     ethr =  7.38E-03,  avg # of iterations =  2.2

     negative rho (up, down):  1.515E-01 0.000E+00

     total cpu time spent up to now is        6.9 secs

     total energy              =    -895.22546148 Ry
     estimated scf accuracy    <      16.42988981 Ry

     iteration #  3     ecut=    10.00 Ry     beta= 0.70
     Davidson diagonalization with overlap
     ethr =  7.38E-03,  avg # of iterations =  4.0

     negative rho (up, down):  3.276E-01 0.000E+00

     total cpu time spent up to now is        8.9 secs

     total energy              =    -889.57259031 Ry
     estimated scf accuracy    <     368.62237294 Ry

     iteration #  4     ecut=    10.00 Ry     beta= 0.70
     Davidson diagonalization with overlap
     ethr =  7.38E-03,  avg # of iterations =  4.2

     negative rho (up, down):  3.225E-02 0.000E+00

     total cpu time spent up to now is       10.7 secs

     total energy              =    -898.61753412 Ry
     estimated scf accuracy    <       4.41768412 Ry

     iteration #  5     ecut=    10.00 Ry     beta= 0.70
     Davidson diagonalization with overlap
     ethr =  7.38E-03,  avg # of iterations =  2.0

     negative rho (up, down):  4.324E-02 0.000E+00

     total cpu time spent up to now is       12.4 secs

     total energy              =    -898.81628104 Ry
     estimated scf accuracy    <       2.69632273 Ry

     iteration #  6     ecut=    10.00 Ry     beta= 0.70
     Davidson diagonalization with overlap
     ethr =  5.39E-03,  avg # of iterations =  1.2

     negative rho (up, down):  4.354E-03 0.000E+00

     total cpu time spent up to now is       14.0 secs

     total energy              =    -898.89689293 Ry
     estimated scf accuracy    <       0.36687462 Ry

     iteration #  7     ecut=    10.00 Ry     beta= 0.70
     Davidson diagonalization with overlap
     ethr =  7.34E-04,  avg # of iterations =  2.2

     negative rho (up, down):  6.406E-03 0.000E+00

     total cpu time spent up to now is       15.9 secs

     total energy              =    -898.91450481 Ry
     estimated scf accuracy    <       0.20069895 Ry

     iteration #  8     ecut=    10.00 Ry     beta= 0.70
     Davidson diagonalization with overlap
     ethr =  4.01E-04,  avg # of iterations =  2.0

     negative rho (up, down):  1.826E-03 0.000E+00

     total cpu time spent up to now is       17.8 secs

     total energy              =    -898.91493898 Ry
     estimated scf accuracy    <       0.05829094 Ry

     iteration #  9     ecut=    10.00 Ry     beta= 0.70
     Davidson diagonalization with overlap
     ethr =  1.17E-04,  avg # of iterations =  4.8

     negative rho (up, down):  2.601E-03 0.000E+00

     total cpu time spent up to now is       19.6 secs

     total energy              =    -898.91632725 Ry
     estimated scf accuracy    <       0.06919908 Ry

     iteration # 10     ecut=    10.00 Ry     beta= 0.70
     Davidson diagonalization with overlap
     ethr =  1.17E-04,  avg # of iterations =  1.0

     negative rho (up, down):  8.178E-05 0.000E+00

     total cpu time spent up to now is       21.4 secs

     total energy              =    -898.91737360 Ry
     estimated scf accuracy    <       0.02907112 Ry

     iteration # 11     ecut=    10.00 Ry     beta= 0.70
     Davidson diagonalization with overlap
     ethr =  5.81E-05,  avg # of iterations =  1.2

     negative rho (up, down):  6.916E-04 0.000E+00

     total cpu time spent up to now is       23.1 secs

     total energy              =    -898.91776366 Ry
     estimated scf accuracy    <       0.04073555 Ry

     iteration # 12     ecut=    10.00 Ry     beta= 0.70
     Davidson diagonalization with overlap
     ethr =  5.81E-05,  avg # of iterations =  1.0

     negative rho (up, down):  3.489E-05 0.000E+00

     total cpu time spent up to now is       24.8 secs

     total energy              =    -898.91801733 Ry
     estimated scf accuracy    <       0.00078757 Ry

     iteration # 13     ecut=    10.00 Ry     beta= 0.70
     Davidson diagonalization with overlap
     ethr =  1.58E-06,  avg # of iterations =  8.2

     total cpu time spent up to now is       26.5 secs

     total energy              =    -898.91805164 Ry
     estimated scf accuracy    <       0.00000459 Ry

     iteration # 14     ecut=    10.00 Ry     beta= 0.70
     Davidson diagonalization with overlap
     ethr =  9.18E-09,  avg # of iterations =  1.0

     total cpu time spent up to now is       28.1 secs

     total energy              =    -898.91805428 Ry
     estimated scf accuracy    <       0.00000163 Ry

     iteration # 15     ecut=    10.00 Ry     beta= 0.70
     Davidson diagonalization with overlap
     ethr =  3.26E-09,  avg # of iterations =  1.0

     total cpu time spent up to now is       29.8 secs

     total energy              =    -898.91805464 Ry
     estimated scf accuracy    <       0.00000006 Ry

     iteration # 16     ecut=    10.00 Ry     beta= 0.70
     Davidson diagonalization with overlap
     ethr =  1.19E-10,  avg # of iterations =  1.0

     total cpu time spent up to now is       31.4 secs

     total energy              =    -898.91805467 Ry
     estimated scf accuracy    <       0.00000001 Ry

     iteration # 17     ecut=    10.00 Ry     beta= 0.70
     Davidson diagonalization with overlap
     ethr =  2.20E-11,  avg # of iterations =  1.0

     total cpu time spent up to now is       33.0 secs

     End of self-consistent calculation

          k = 0.0000 0.0000 0.0000 (   657 PWs)   bands (ev):

   -62.7229 -62.7014 -29.7376 -29.1374 -29.1374 -29.0664 -28.6339 -28.6339
   -10.5802 -10.5167  -8.8562  -8.7236  -2.2095  -1.8558   1.2433   1.2433
     1.3933   1.3933   1.8365   2.6005   2.6005   2.6475   2.6475   2.6924
     4.6408   4.9417   7.6216   7.6216   7.7319   7.7319   7.8742   7.8742
     8.0610   8.0610   8.2227   8.3429   9.1787   9.9982  11.7932  11.9928
    12.2909  12.5874  14.3719  15.6087  15.6087  15.6338  15.6338  16.7570
    17.2362  17.5846  17.5846  17.7342  18.0919  18.0919  18.2741  18.6074
    18.8890  21.0318  21.0318  21.3173

     occupation numbers 
     1.0000   1.0000   1.0000   1.0000   1.0000   1.0000   1.0000   1.0000
     1.0000   1.0000   1.0000   1.0000   1.0000   1.0000   1.0000   1.0000
     1.0000   1.0000   1.0000   1.0000   1.0000   1.0000   1.0000   1.0000
    -0.0001  -0.0000  -0.0000  -0.0000  -0.0000  -0.0000  -0.0000  -0.0000
    -0.0000  -0.0000  -0.0000  -0.0000  -0.0000  -0.0000  -0.0000  -0.0000
    -0.0000  -0.0000  -0.0000  -0.0000  -0.0000  -0.0000  -0.0000  -0.0000
    -0.0000  -0.0000  -0.0000  -0.0000  -0.0000  -0.0000  -0.0000  -0.0000
    -0.0000  -0.0000  -0.0000  -0.0000

          k = 0.0000 0.2887 0.0000 (   653 PWs)   bands (ev):

   -62.7357 -62.7071 -29.6676 -29.5870 -29.3941 -29.2624 -28.8480 -28.6926
    -9.6756  -9.6240  -8.6634  -8.5791  -1.2746  -0.9928  -0.3065  -0.2336
     0.2770   0.5001   1.4412   1.5239   2.2754   2.3251   2.4785   2.8705
     3.8744   3.9725   6.9700   7.4286   7.4543   7.5029   7.8330   8.1182
     9.0750   9.4031  10.2030  10.7384  11.0510  11.8705  12.4493  13.0064
    13.3913  13.4786  13.9798  14.4556  15.2441  15.7820  16.1209  16.4903
    17.2680  17.4165  17.6706  17.7877  18.1126  18.1387  18.3124  18.7139
    19.2128  19.4484  19.7018  19.9926

     occupation numbers 
     1.0000   1.0000   1.0000   1.0000   1.0000   1.0000   1.0000   1.0000
     1.0000   1.0000   1.0000   1.0000   1.0000   1.0000   1.0000   1.0000
     1.0000   1.0000   1.0000   1.0000   1.0000   1.0000   1.0000   1.0000
     0.4105   0.1486  -0.0000  -0.0000  -0.0000  -0.0000  -0.0000  -0.0000
    -0.0000  -0.0000  -0.0000  -0.0000  -0.0000  -0.0000  -0.0000  -0.0000
    -0.0000  -0.0000  -0.0000  -0.0000  -0.0000  -0.0000  -0.0000  -0.0000
    -0.0000  -0.0000  -0.0000  -0.0000  -0.0000  -0.0000  -0.0000  -0.0000
    -0.0000  -0.0000  -0.0000  -0.0000

          k = 0.0000-0.5774 0.0000 (   686 PWs)   bands (ev):

   -62.7723 -62.7512 -30.6801 -30.5843 -29.7685 -29.6246 -29.5309 -29.2152
    -8.6532  -8.6202  -8.4405  -8.4050  -2.1933  -2.1445  -0.8400  -0.6995
    -0.1192  -0.0885   0.5975   0.7333   1.9563   2.2602   2.7831   2.8257
     3.6445   3.6743   7.8948   7.9540   7.9645   8.0877   8.2725   8.6237
     9.2227   9.5162   9.6283   9.9831  11.8132  11.8918  12.4391  12.7608
    13.5172  13.5922  13.9894  14.0794  14.7173  14.9558  15.0517  15.4460
    15.5530  15.9488  17.4435  17.5536  18.1080  18.3191  19.6397  20.1862
    20.3463  20.5989  20.6931  20.7862

     occupation numbers 
     1.0000   1.0000   1.0000   1.0000   1.0000   1.0000   1.0000   1.0000
     1.0000   1.0000   1.0000   1.0000   1.0000   1.0000   1.0000   1.0000
     1.0000   1.0000   1.0000   1.0000   1.0000   1.0000   1.0000   1.0000
     0.9725   0.9325  -0.0000  -0.0000  -0.0000  -0.0000  -0.0000  -0.0000
    -0.0000  -0.0000  -0.0000  -0.0000  -0.0000  -0.0000  -0.0000  -0.0000
    -0.0000  -0.0000  -0.0000  -0.0000  -0.0000  -0.0000  -0.0000  -0.0000
    -0.0000  -0.0000  -0.0000  -0.0000  -0.0000  -0.0000  -0.0000  -0.0000
    -0.0000  -0.0000  -0.0000  -0.0000

          k = 0.2500 0.4330 0.0000 (   681 PWs)   bands (ev):

   -62.7594 -62.7373 -30.2445 -30.1263 -29.8534 -29.7190 -29.6836 -29.3573
    -8.6385  -8.6029  -8.4094  -8.3748  -1.4230  -1.3487  -1.0346  -0.9972
    -0.0296   0.1239   0.6984   0.8564   1.0474   1.0657   2.2961   2.4169
     3.8034   3.8370   6.9864   7.3009   8.0587   8.1932   8.4381   8.6621
    10.0867  10.1525  11.0953  11.5076  12.2283  12.2553  12.4972  13.1669
    13.2801  13.6337  13.8994  14.6743  15.4291  15.7747  15.8420  16.3094
    16.4125  16.7285  16.8443  17.1108  17.3736  17.4671  17.4723  18.2029
    18.7310  18.7675  18.9050  19.6709

     occupation numbers 
     1.0000   1.0000   1.0000   1.0000   1.0000   1.0000   1.0000   1.0000
     1.0000   1.0000   1.0000   1.0000   1.0000   1.0000   1.0000   1.0000
     1.0000   1.0000   1.0000   1.0000   1.0000   1.0000   1.0000   1.0000
     0.6290   0.5261  -0.0000  -0.0000  -0.0000  -0.0000  -0.0000  -0.0000
    -0.0000  -0.0000  -0.0000  -0.0000  -0.0000  -0.0000  -0.0000  -0.0000
    -0.0000  -0.0000  -0.0000  -0.0000  -0.0000  -0.0000  -0.0000  -0.0000
    -0.0000  -0.0000  -0.0000  -0.0000  -0.0000  -0.0000  -0.0000  -0.0000
    -0.0000  -0.0000  -0.0000  -0.0000

     the Fermi energy is     3.8454 ev

!    total energy              =    -898.91805468 Ry

     total all-electron energy =    -18439.327077 Ry
     estimated scf accuracy    <          1.2E-09 Ry
     smearing contrib. (-TS)   =      -0.00717277 Ry
     internal energy E=F+TS    =    -898.91088190 Ry

     The total energy is F=E-TS. E is the sum of the following terms:
     one-electron contribution =   -1030.80693894 Ry
     hartree contribution      =     525.15885385 Ry
     xc contribution           =     -63.29940200 Ry
     ewald contribution        =     256.18108273 Ry
     one-center paw contrib.   =    -586.14447754 Ry
      -> PAW hartree energy AE =     149.42222612 Ry
      -> PAW hartree energy PS =    -149.41690181 Ry
      -> PAW xc energy AE      =    -328.27490741 Ry
      -> PAW xc energy PS      =      35.19857076 Ry
      -> total E_H with PAW    =     525.16417817 Ry
      -> total E_XC with PAW   =    -356.37573865 Ry

     convergence has been achieved in  17 iterations

     Writing output data file ./tmp/NbS2_bi.save/

     init_run     :      1.57s CPU      1.76s WALL (       1 calls)
     electrons    :     25.90s CPU     30.03s WALL (       1 calls)

     Called by init_run:
     wfcinit      :      0.10s CPU      0.11s WALL (       1 calls)
     wfcinit:atom :      0.00s CPU      0.00s WALL (       4 calls)
     wfcinit:wfcr :      0.10s CPU      0.11s WALL (       4 calls)
     potinit      :      0.32s CPU      0.35s WALL (       1 calls)
     hinit0       :      0.58s CPU      0.61s WALL (       1 calls)

     Called by electrons:
     c_bands      :      5.81s CPU      5.98s WALL (      17 calls)
     sum_band     :     10.70s CPU     12.85s WALL (      17 calls)
     v_of_rho     :      0.58s CPU      0.62s WALL (      18 calls)
     v_h          :      0.32s CPU      0.33s WALL (      18 calls)
     v_xc         :      0.26s CPU      0.29s WALL (      18 calls)
     newd         :      7.33s CPU      9.09s WALL (      18 calls)
     PAW_pot      :      1.07s CPU      1.08s WALL (      18 calls)
     mix_rho      :      0.56s CPU      0.58s WALL (      17 calls)

     Called by c_bands:
     init_us_2    :      0.03s CPU      0.03s WALL (     140 calls)
     cegterg      :      5.72s CPU      5.89s WALL (      68 calls)

     Called by sum_band:
     sum_band:wei :      0.01s CPU      0.01s WALL (      17 calls)
     sum_band:loo :      0.61s CPU      0.63s WALL (      17 calls)
     sum_band:buf :      0.01s CPU      0.01s WALL (      68 calls)
     sum_band:ini :      0.01s CPU      0.01s WALL (      68 calls)
     sum_band:cal :      0.13s CPU      0.14s WALL (      68 calls)
     sum_band:bec :      0.01s CPU      0.01s WALL (      68 calls)
     addusdens    :      9.68s CPU     11.77s WALL (      17 calls)
     addusd:skk   :      0.04s CPU      0.06s WALL (      34 calls)
     addusd:dgemm :      3.69s CPU      5.42s WALL (      34 calls)
     addusd:qvan2 :      5.39s CPU      5.41s WALL (      34 calls)

     Called by *egterg:
     cdiaghg      :      1.33s CPU      1.34s WALL (     248 calls)
     cegterg:over :      0.58s CPU      0.60s WALL (     180 calls)
     cegterg:upda :      0.27s CPU      0.27s WALL (     180 calls)
     cegterg:last :      0.55s CPU      0.55s WALL (     111 calls)
     h_psi        :      2.51s CPU      2.65s WALL (     252 calls)
     s_psi        :      0.27s CPU      0.27s WALL (     252 calls)
     g_psi        :      0.01s CPU      0.01s WALL (     180 calls)

     Called by h_psi:
     h_psi:calbec :      0.33s CPU      0.34s WALL (     252 calls)
     vloc_psi     :      1.90s CPU      2.02s WALL (     252 calls)
     add_vuspsi   :      0.26s CPU      0.27s WALL (     252 calls)

     General routines
     calbec       :      0.46s CPU      0.47s WALL (     320 calls)
     fft          :      1.45s CPU      1.53s WALL (     106 calls)
     ffts         :      0.01s CPU      0.01s WALL (      35 calls)
     fftw         :      2.13s CPU      2.26s WALL (   22794 calls)
     interpolate  :      0.28s CPU      0.29s WALL (      18 calls)

     Parallel routines
     fft_scatt_xy :      0.47s CPU      0.49s WALL (   22935 calls)
     fft_scatt_yz :      0.65s CPU      0.71s WALL (   22935 calls)

     PAW routines
     PAW_pot      :      1.07s CPU      1.08s WALL (      18 calls)
     PAW_symme    :      0.00s CPU      0.00s WALL (      35 calls)

     PWSCF        :     28.47s CPU     33.13s WALL


   This run was terminated on:  15:51:26  14Jun2021            

=------------------------------------------------------------------------------=
   JOB DONE.
=------------------------------------------------------------------------------=
