
     Program PWSCF v.6.6 starts on 14Jun2021 at 16: 2:20 

     This program is part of the open-source Quantum ESPRESSO suite
     for quantum simulation of materials; please cite
         "P. Giannozzi et al., J. Phys.:Condens. Matter 21 395502 (2009);
         "P. Giannozzi et al., J. Phys.:Condens. Matter 29 465901 (2017);
          URL http://www.quantum-espresso.org", 
     in publications or presentations arising from this work. More details at
     http://www.quantum-espresso.org/quote

     Parallel version (MPI), running on     2 processors

     MPI processes distributed on     1 nodes
     R & G space division:  proc/nbgrp/npool/nimage =       2
     Fft bands division:     nmany     =       1
     Waiting for input...
     Reading input from standard input

     Current dimensions of program PWSCF are:
     Max number of different atomic species (ntypx) = 10
     Max number of k-points (npk) =  40000
     Max angular momentum in pseudopotentials (lmaxx) =  3
     file Nb.pz-spn-kjpaw_psl.1.0.0.UPF: wavefunction(s)  4S 4P 4D renormalized
     file S.pz-n-kjpaw_psl.0.1.UPF: wavefunction(s)  3P renormalized

     Subspace diagonalization in iterative solution of the eigenvalue problem:
     a serial algorithm will be used


     Parallelization info
     --------------------
     sticks:   dense  smooth     PW     G-vecs:    dense   smooth      PW
     Min         534     372    105                85019    49822    7601
     Max         535     373    106                85022    49847    7608
     Sum        1069     745    211               170041    99669   15209



     bravais-lattice index     =            4
     lattice parameter (alat)  =       6.2006  a.u.
     unit-cell volume          =    1258.4114 (a.u.)^3
     number of atoms/cell      =            6
     number of atomic types    =            2
     number of electrons       =        50.00
     number of Kohn-Sham states=           60
     kinetic-energy cutoff     =      70.0000  Ry
     charge density cutoff     =     400.0000  Ry
     convergence threshold     =      1.0E-08
     mixing beta               =       0.7000
     number of iterations used =            8  plain     mixing
     Exchange-correlation= SLA PZ NOGX NOGC
                           (   1   1   0   0   0   0   0)

     celldm(1)=   6.200569  celldm(2)=   0.000000  celldm(3)=   6.095331
     celldm(4)=   0.000000  celldm(5)=   0.000000  celldm(6)=   0.000000

     crystal axes: (cart. coord. in units of alat)
               a(1) = (   1.000000   0.000000   0.000000 )  
               a(2) = (  -0.500000   0.866025   0.000000 )  
               a(3) = (   0.000000   0.000000   6.095331 )  

     reciprocal axes: (cart. coord. in units 2 pi/alat)
               b(1) = (  1.000000  0.577350 -0.000000 )  
               b(2) = (  0.000000  1.154701  0.000000 )  
               b(3) = (  0.000000 -0.000000  0.164060 )  


     PseudoPot. # 1 for Nb read from file:
     ../Nb.pz-spn-kjpaw_psl.1.0.0.UPF
     MD5 check sum: 38c2e04b3cc915696ca8dc9f46a23270
     Pseudo is Projector augmented-wave + core cor, Zval = 13.0
     Generated using "atomic" code by A. Dal Corso v.6.2.2
     Shape of augmentation charge: PSQ
     Using radial grid of 1227 points,  6 beta functions with: 
                l(1) =   0
                l(2) =   0
                l(3) =   1
                l(4) =   1
                l(5) =   2
                l(6) =   2
     Q(r) pseudized with 0 coefficients 


     PseudoPot. # 2 for S  read from file:
     ../S.pz-n-kjpaw_psl.0.1.UPF
     MD5 check sum: c0b1682311cf098e03f7841691d9a679
     Pseudo is Projector augmented-wave + core cor, Zval =  6.0
     Generated using "atomic" code by A. Dal Corso v.5.0.2 svn rev. 9415
     Shape of augmentation charge: PSQ
     Using radial grid of 1151 points,  4 beta functions with: 
                l(1) =   0
                l(2) =   0
                l(3) =   1
                l(4) =   1
     Q(r) pseudized with 0 coefficients 


     atomic species   valence    mass     pseudopotential
        Nb            13.00    92.90600     Nb( 1.00)
        S              6.00    32.06500     S ( 1.00)

      6 Sym. Ops. (no inversion) found


                                    s                        frac. trans.

      isym =  1     identity                                     

 cryst.   s( 1) = (     1          0          0      )
                  (     0          1          0      )
                  (     0          0          1      )

 cart.    s( 1) = (  1.0000000  0.0000000  0.0000000 )
                  (  0.0000000  1.0000000  0.0000000 )
                  (  0.0000000  0.0000000  1.0000000 )


      isym =  2     120 deg rotation - cryst. axis [0,0,1]       

 cryst.   s( 2) = (     0          1          0      )
                  (    -1         -1          0      )
                  (     0          0          1      )

 cart.    s( 2) = ( -0.5000000 -0.8660254  0.0000000 )
                  (  0.8660254 -0.5000000  0.0000000 )
                  (  0.0000000  0.0000000  1.0000000 )


      isym =  3     120 deg rotation - cryst. axis [0,0,-1]      

 cryst.   s( 3) = (    -1         -1          0      )
                  (     1          0          0      )
                  (     0          0          1      )

 cart.    s( 3) = ( -0.5000000  0.8660254  0.0000000 )
                  ( -0.8660254 -0.5000000  0.0000000 )
                  (  0.0000000  0.0000000  1.0000000 )


      isym =  4     inv. 180 deg rotation - cart. axis [1,0,0]   

 cryst.   s( 4) = (    -1          0          0      )
                  (     1          1          0      )
                  (     0          0          1      )

 cart.    s( 4) = ( -1.0000000  0.0000000  0.0000000 )
                  (  0.0000000  1.0000000  0.0000000 )
                  (  0.0000000  0.0000000  1.0000000 )


      isym =  5     inv. 180 deg rotation - cryst. axis [0,1,0]  

 cryst.   s( 5) = (     1          1          0      )
                  (     0         -1          0      )
                  (     0          0          1      )

 cart.    s( 5) = (  0.5000000  0.8660254  0.0000000 )
                  (  0.8660254 -0.5000000  0.0000000 )
                  (  0.0000000  0.0000000  1.0000000 )


      isym =  6     inv. 180 deg rotation - cryst. axis [1,1,0]  

 cryst.   s( 6) = (     0         -1          0      )
                  (    -1          0          0      )
                  (     0          0          1      )

 cart.    s( 6) = (  0.5000000 -0.8660254  0.0000000 )
                  ( -0.8660254 -0.5000000  0.0000000 )
                  (  0.0000000  0.0000000  1.0000000 )


     point group C_3v (3m)  
     there are  3 classes
     the character table:

       E     2C3   3s_v 
A_1    1.00  1.00  1.00
A_2    1.00  1.00 -1.00
E      2.00 -1.00  0.00

     the symmetry operations in each class and the name of the first element:

     E        1
          identity                                               
     2C3      2    3
          120 deg rotation - cryst. axis [0,0,1]                 
     3s_v     4    5    6
          inv. 180 deg rotation - cart. axis [1,0,0]             

   Cartesian axes

     site n.     atom                  positions (alat units)
         1           S   tau(   1) = (   0.0000000   0.5773503   1.4932768  )
         2           Nb  tau(   2) = (   0.0000000   0.0000000   1.0094618  )
         3           S   tau(   3) = (   0.0000000   0.5773503   0.5321904  )
         4           S   tau(   4) = (   0.5000000   0.2886751   2.5511139  )
         5           Nb  tau(   5) = (   0.0000000   0.0000000   3.0283905  )
         6           S   tau(   6) = (   0.5000000   0.2886751   3.5056620  )

   Crystallographic axes

     site n.     atom                  positions (cryst. coord.)
         1           S   tau(   1) = (  0.3333333  0.6666667  0.2449870  )
         2           Nb  tau(   2) = (  0.0000000  0.0000000  0.1656123  )
         3           S   tau(   3) = (  0.3333333  0.6666667  0.0873112  )
         4           S   tau(   4) = (  0.6666667  0.3333333  0.4185358  )
         5           Nb  tau(   5) = (  0.0000000  0.0000000  0.4968378  )
         6           S   tau(   6) = (  0.6666667  0.3333333  0.5751389  )

     number of k points=     4  Methfessel-Paxton smearing, width (Ry)=  0.0200
                       cart. coord. in units 2pi/alat
        k(    1) = (   0.0000000   0.0000000   0.0000000), wk =   0.1250000
        k(    2) = (   0.0000000   0.2886751   0.0000000), wk =   0.7500000
        k(    3) = (   0.0000000  -0.5773503   0.0000000), wk =   0.3750000
        k(    4) = (   0.2500000   0.4330127   0.0000000), wk =   0.7500000

                       cryst. coord.
        k(    1) = (   0.0000000   0.0000000   0.0000000), wk =   0.1250000
        k(    2) = (   0.0000000   0.2500000   0.0000000), wk =   0.7500000
        k(    3) = (   0.0000000  -0.5000000   0.0000000), wk =   0.3750000
        k(    4) = (   0.2500000   0.2500000   0.0000000), wk =   0.7500000

     Dense  grid:   170041 G-vectors     FFT dimensions: (  40,  40, 243)

     Smooth grid:    99669 G-vectors     FFT dimensions: (  36,  36, 216)

     Dynamical RAM for                 wfc:       5.70 MB

     Dynamical RAM for     wfc (w. buffer):      28.49 MB

     Dynamical RAM for           str. fact:       2.59 MB

     Dynamical RAM for           local pot:       0.00 MB

     Dynamical RAM for          nlocal pot:       6.46 MB

     Dynamical RAM for                qrad:       3.21 MB

     Dynamical RAM for          rho,v,vnew:       8.36 MB

     Dynamical RAM for               rhoin:       2.79 MB

     Dynamical RAM for            rho*nmix:      20.76 MB

     Dynamical RAM for           G-vectors:       5.25 MB

     Dynamical RAM for          h,s,v(r/c):       0.66 MB

     Dynamical RAM for          <psi|beta>:       0.06 MB

     Dynamical RAM for                 psi:      11.39 MB

     Dynamical RAM for                hpsi:      11.39 MB

     Dynamical RAM for                spsi:      11.39 MB

     Dynamical RAM for      wfcinit/wfcrot:      11.48 MB

     Dynamical RAM for           addusdens:     246.48 MB

     Estimated static dynamical RAM per process >      89.23 MB

     Estimated max dynamical RAM per process >     335.72 MB

     Estimated total dynamical RAM >     671.44 MB

     Initial potential from superposition of free atoms

     starting charge   49.99775, renormalised to   50.00000

     negative rho (up, down):  7.872E-05 0.000E+00
     Starting wfcs are   42 randomized atomic wfcs +   18 random wfcs
     Checking if some PAW data can be deallocated... 

     total cpu time spent up to now is        6.2 secs

     Self-consistent Calculation

     iteration #  1     ecut=    70.00 Ry     beta= 0.70
     Davidson diagonalization with overlap
     ethr =  1.00E-02,  avg # of iterations =  8.2

     Threshold (ethr) on eigenvalues was too large:
     Diagonalizing with lowered threshold

     Davidson diagonalization with overlap
     ethr =  5.47E-04,  avg # of iterations =  5.0

     negative rho (up, down):  1.246E-04 0.000E+00

     total cpu time spent up to now is       41.5 secs

     total energy              =    -907.80483843 Ry
     estimated scf accuracy    <       0.27422528 Ry

     iteration #  2     ecut=    70.00 Ry     beta= 0.70
     Davidson diagonalization with overlap
     ethr =  5.48E-04,  avg # of iterations =  6.8

     negative rho (up, down):  1.292E-04 0.000E+00

     total cpu time spent up to now is       57.2 secs

     total energy              =    -907.52435394 Ry
     estimated scf accuracy    <       3.38121778 Ry

     iteration #  3     ecut=    70.00 Ry     beta= 0.70
     Davidson diagonalization with overlap
     ethr =  5.48E-04,  avg # of iterations =  8.2

     negative rho (up, down):  1.152E-04 0.000E+00

     total cpu time spent up to now is       72.8 secs

     total energy              =    -907.18649511 Ry
     estimated scf accuracy    <      21.26503984 Ry

     iteration #  4     ecut=    70.00 Ry     beta= 0.70
     Davidson diagonalization with overlap
     ethr =  5.48E-04,  avg # of iterations =  6.0

     negative rho (up, down):  1.163E-04 0.000E+00

     total cpu time spent up to now is       87.5 secs

     total energy              =    -907.88765551 Ry
     estimated scf accuracy    <       1.62519136 Ry

     iteration #  5     ecut=    70.00 Ry     beta= 0.70
     Davidson diagonalization with overlap
     ethr =  5.48E-04,  avg # of iterations =  1.5

     negative rho (up, down):  1.190E-04 0.000E+00

     total cpu time spent up to now is       99.2 secs

     total energy              =    -907.90403284 Ry
     estimated scf accuracy    <       0.11790875 Ry

     iteration #  6     ecut=    70.00 Ry     beta= 0.70
     Davidson diagonalization with overlap
     ethr =  2.36E-04,  avg # of iterations =  2.2

     negative rho (up, down):  1.219E-04 0.000E+00

     total cpu time spent up to now is      111.2 secs

     total energy              =    -907.90792029 Ry
     estimated scf accuracy    <       0.05482271 Ry

     iteration #  7     ecut=    70.00 Ry     beta= 0.70
     Davidson diagonalization with overlap
     ethr =  1.10E-04,  avg # of iterations =  3.5

     negative rho (up, down):  1.257E-04 0.000E+00

     total cpu time spent up to now is      123.7 secs

     total energy              =    -907.90793171 Ry
     estimated scf accuracy    <       0.03221130 Ry

     iteration #  8     ecut=    70.00 Ry     beta= 0.70
     Davidson diagonalization with overlap
     ethr =  6.44E-05,  avg # of iterations =  4.0

     negative rho (up, down):  1.271E-04 0.000E+00

     total cpu time spent up to now is      135.6 secs

     total energy              =    -907.90850785 Ry
     estimated scf accuracy    <       0.22643636 Ry

     iteration #  9     ecut=    70.00 Ry     beta= 0.70
     Davidson diagonalization with overlap
     ethr =  6.44E-05,  avg # of iterations =  1.0

     negative rho (up, down):  1.298E-04 0.000E+00

     total cpu time spent up to now is      146.7 secs

     total energy              =    -907.91112198 Ry
     estimated scf accuracy    <       0.02837316 Ry

     iteration # 10     ecut=    70.00 Ry     beta= 0.70
     Davidson diagonalization with overlap
     ethr =  5.67E-05,  avg # of iterations =  1.0

     negative rho (up, down):  1.295E-04 0.000E+00

     total cpu time spent up to now is      157.7 secs

     total energy              =    -907.90986322 Ry
     estimated scf accuracy    <       0.06650873 Ry

     iteration # 11     ecut=    70.00 Ry     beta= 0.70
     Davidson diagonalization with overlap
     ethr =  5.67E-05,  avg # of iterations =  1.0

     negative rho (up, down):  1.302E-04 0.000E+00

     total cpu time spent up to now is      168.7 secs

     total energy              =    -907.91060768 Ry
     estimated scf accuracy    <       0.04695404 Ry

     iteration # 12     ecut=    70.00 Ry     beta= 0.70
     Davidson diagonalization with overlap
     ethr =  5.67E-05,  avg # of iterations =  1.0

     negative rho (up, down):  1.302E-04 0.000E+00

     total cpu time spent up to now is      179.7 secs

     total energy              =    -907.91093429 Ry
     estimated scf accuracy    <       0.00027400 Ry

     iteration # 13     ecut=    70.00 Ry     beta= 0.70
     Davidson diagonalization with overlap
     ethr =  5.48E-07,  avg # of iterations =  8.2

     negative rho (up, down):  1.303E-04 0.000E+00

     total cpu time spent up to now is      192.8 secs

     total energy              =    -907.91093619 Ry
     estimated scf accuracy    <       0.00000032 Ry

     iteration # 14     ecut=    70.00 Ry     beta= 0.70
     Davidson diagonalization with overlap
     ethr =  6.43E-10,  avg # of iterations =  1.2

     negative rho (up, down):  1.303E-04 0.000E+00

     total cpu time spent up to now is      204.2 secs

     End of self-consistent calculation

          k = 0.0000 0.0000 0.0000 ( 12443 PWs)   bands (ev):

   -51.4710 -51.4601 -27.6543 -27.6535 -27.4448 -27.4448 -27.4366 -27.4366
   -10.3650 -10.2977  -9.0685  -8.9696  -2.1276  -1.8226   0.9520   0.9520
     1.0052   1.0052   1.3868   2.0658   2.0658   2.1101   2.1101   2.1233
     3.8428   4.2746   6.3161   6.3161   6.3592   6.3592   6.4935   6.4935
     6.5225   6.5225   8.5424   8.7095   9.0094   9.6175  11.3515  11.5646
    11.6165  11.9745  13.8427  13.8427  13.8692  13.8692  14.0297  15.7574
    15.7895  15.7895  16.0378  16.0378  16.1206  17.1087  18.0439  18.5125
    18.6562  18.6562  18.7877  19.1657

     occupation numbers 
     1.0000   1.0000   1.0000   1.0000   1.0000   1.0000   1.0000   1.0000
     1.0000   1.0000   1.0000   1.0000   1.0000   1.0000   1.0000   1.0000
     1.0000   1.0000   1.0000   1.0000   1.0000   1.0000   1.0000   1.0000
    -0.0019  -0.0000  -0.0000  -0.0000  -0.0000  -0.0000  -0.0000  -0.0000
    -0.0000  -0.0000  -0.0000  -0.0000  -0.0000  -0.0000  -0.0000  -0.0000
    -0.0000  -0.0000  -0.0000  -0.0000  -0.0000  -0.0000  -0.0000  -0.0000
    -0.0000  -0.0000  -0.0000  -0.0000  -0.0000  -0.0000  -0.0000  -0.0000
    -0.0000  -0.0000  -0.0000  -0.0000

          k = 0.0000 0.2887 0.0000 ( 12448 PWs)   bands (ev):

   -51.4485 -51.4376 -27.6729 -27.6666 -27.6054 -27.6041 -27.4958 -27.4879
    -9.6081  -9.5475  -8.8197  -8.7483  -1.4747  -1.2408  -0.3345  -0.2914
    -0.0027   0.1865   1.1036   1.1474   1.6738   1.7259   1.9576   2.3176
     3.1126   3.1985   5.8335   6.0826   6.1351   6.2255   6.5786   6.8145
     7.4578   7.5210   9.8956  10.3661  10.8632  11.5539  11.8399  12.3034
    12.4016  12.5024  12.9474  13.1207  14.2695  14.8062  14.9590  15.2071
    15.5313  15.6864  15.8532  16.1242  16.5243  16.5632  16.6828  17.1136
    17.3760  17.6325  17.9698  19.0842

     occupation numbers 
     1.0000   1.0000   1.0000   1.0000   1.0000   1.0000   1.0000   1.0000
     1.0000   1.0000   1.0000   1.0000   1.0000   1.0000   1.0000   1.0000
     1.0000   1.0000   1.0000   1.0000   1.0000   1.0000   1.0000   1.0000
     0.7354   0.4795  -0.0000  -0.0000  -0.0000  -0.0000  -0.0000  -0.0000
    -0.0000  -0.0000  -0.0000  -0.0000  -0.0000  -0.0000  -0.0000  -0.0000
    -0.0000  -0.0000  -0.0000  -0.0000  -0.0000  -0.0000  -0.0000  -0.0000
    -0.0000  -0.0000  -0.0000  -0.0000  -0.0000  -0.0000  -0.0000  -0.0000
    -0.0000  -0.0000  -0.0000  -0.0000

          k = 0.0000-0.5774 0.0000 ( 12462 PWs)   bands (ev):

   -51.4260 -51.4149 -27.8923 -27.8876 -27.5561 -27.5542 -27.5462 -27.5386
    -8.6890  -8.6524  -8.5244  -8.4939  -2.0862  -2.0440  -1.1244  -0.9992
    -0.4304  -0.4015   0.4424   0.4895   1.5420   1.8844   2.2986   2.3523
     3.0240   3.1345   6.3727   6.3837   6.7947   6.8153   7.2727   7.5815
     8.0637   8.1856   9.2679   9.7974  11.0322  11.0715  11.4754  11.5645
    12.5109  12.5691  13.1714  13.3914  13.9255  13.9273  14.0481  14.3038
    15.0080  15.0521  16.4046  16.8457  17.6585  17.7147  17.8813  18.6472
    18.8144  19.0690  19.7151  20.0950

     occupation numbers 
     1.0000   1.0000   1.0000   1.0000   1.0000   1.0000   1.0000   1.0000
     1.0000   1.0000   1.0000   1.0000   1.0000   1.0000   1.0000   1.0000
     1.0000   1.0000   1.0000   1.0000   1.0000   1.0000   1.0000   1.0001
     0.9275   0.6743  -0.0000  -0.0000  -0.0000  -0.0000  -0.0000  -0.0000
    -0.0000  -0.0000  -0.0000  -0.0000  -0.0000  -0.0000  -0.0000  -0.0000
    -0.0000  -0.0000  -0.0000  -0.0000  -0.0000  -0.0000  -0.0000  -0.0000
    -0.0000  -0.0000  -0.0000  -0.0000  -0.0000  -0.0000  -0.0000  -0.0000
    -0.0000  -0.0000  -0.0000  -0.0000

          k = 0.2500 0.4330 0.0000 ( 12418 PWs)   bands (ev):

   -51.4259 -51.4149 -27.8107 -27.8056 -27.6318 -27.6247 -27.5562 -27.5543
    -8.7067  -8.6658  -8.5041  -8.4703  -1.4653  -1.3849  -1.2432  -1.2080
    -0.1545  -0.0593   0.3603   0.5162   0.6673   0.6871   1.8395   1.9668
     3.2384   3.2607   5.9676   6.1724   6.7970   6.9007   7.0034   7.1207
     8.3418   8.3853  10.6736  10.8412  11.5405  11.5920  11.7511  12.6183
    12.8417  12.9136  13.0651  13.9546  14.3223  14.4318  14.7251  15.2387
    15.2618  15.3450  15.3946  15.6270  16.1081  16.7034  16.7089  17.3259
    17.4508  17.8617  18.0574  18.8084

     occupation numbers 
     1.0000   1.0000   1.0000   1.0000   1.0000   1.0000   1.0000   1.0000
     1.0000   1.0000   1.0000   1.0000   1.0000   1.0000   1.0000   1.0000
     1.0000   1.0000   1.0000   1.0000   1.0000   1.0000   1.0000   1.0000
     0.3577   0.2934  -0.0000  -0.0000  -0.0000  -0.0000  -0.0000  -0.0000
    -0.0000  -0.0000  -0.0000  -0.0000  -0.0000  -0.0000  -0.0000  -0.0000
    -0.0000  -0.0000  -0.0000  -0.0000  -0.0000  -0.0000  -0.0000  -0.0000
    -0.0000  -0.0000  -0.0000  -0.0000  -0.0000  -0.0000  -0.0000  -0.0000
    -0.0000  -0.0000  -0.0000  -0.0000

     the Fermi energy is     3.1919 ev

!    total energy              =    -907.91093620 Ry

     total all-electron energy =    -18448.319958 Ry
     estimated scf accuracy    <          4.1E-09 Ry
     smearing contrib. (-TS)   =      -0.00846974 Ry
     internal energy E=F+TS    =    -907.90246646 Ry

     The total energy is F=E-TS. E is the sum of the following terms:
     one-electron contribution =   -1048.05410387 Ry
     hartree contribution      =     537.54542947 Ry
     xc contribution           =     -65.32828701 Ry
     ewald contribution        =     256.18108273 Ry
     one-center paw contrib.   =    -588.24658778 Ry
      -> PAW hartree energy AE =      99.49181742 Ry
      -> PAW hartree energy PS =     -98.97732001 Ry
      -> PAW xc energy AE      =    -324.64247705 Ry
      -> PAW xc energy PS      =      30.00550689 Ry
      -> total E_H with PAW    =     538.05992688 Ry
      -> total E_XC with PAW   =    -359.96525717 Ry

     convergence has been achieved in  14 iterations

     Writing output data file ./tmp/NbS2_bi.save/

     init_run     :      5.04s CPU      5.21s WALL (       1 calls)
     electrons    :    193.58s CPU    197.98s WALL (       1 calls)

     Called by init_run:
     wfcinit      :      3.64s CPU      3.66s WALL (       1 calls)
     wfcinit:atom :      0.02s CPU      0.02s WALL (       4 calls)
     wfcinit:wfcr :      3.57s CPU      3.59s WALL (       4 calls)
     potinit      :      0.33s CPU      0.34s WALL (       1 calls)
     hinit0       :      0.62s CPU      0.64s WALL (       1 calls)

     Called by electrons:
     c_bands      :    154.21s CPU    155.27s WALL (      15 calls)
     sum_band     :     31.56s CPU     33.48s WALL (      15 calls)
     v_of_rho     :      0.48s CPU      0.49s WALL (      15 calls)
     v_h          :      0.26s CPU      0.27s WALL (      15 calls)
     v_xc         :      0.22s CPU      0.22s WALL (      15 calls)
     newd         :      5.80s CPU      7.26s WALL (      15 calls)
     PAW_pot      :      0.88s CPU      0.88s WALL (      15 calls)
     mix_rho      :      0.69s CPU      0.72s WALL (      15 calls)

     Called by c_bands:
     init_us_2    :      0.45s CPU      0.45s WALL (     124 calls)
     cegterg      :    153.04s CPU    154.09s WALL (      60 calls)

     Called by sum_band:
     sum_band:wei :      0.01s CPU      0.01s WALL (      15 calls)
     sum_band:loo :     22.87s CPU     23.13s WALL (      15 calls)
     sum_band:buf :      0.18s CPU      0.19s WALL (      60 calls)
     sum_band:ini :      0.22s CPU      0.22s WALL (      60 calls)
     sum_band:cal :      3.84s CPU      3.85s WALL (      60 calls)
     sum_band:bec :      0.01s CPU      0.01s WALL (      60 calls)
     addusdens    :      8.22s CPU      9.85s WALL (      15 calls)
     addusd:skk   :      0.05s CPU      0.05s WALL (      30 calls)
     addusd:dgemm :      3.30s CPU      4.71s WALL (      30 calls)
     addusd:qvan2 :      4.40s CPU      4.41s WALL (      30 calls)

     Called by *egterg:
     cdiaghg      :      1.71s CPU      1.71s WALL (     292 calls)
     cegterg:over :     15.98s CPU     15.99s WALL (     236 calls)
     cegterg:upda :      9.05s CPU      9.07s WALL (     236 calls)
     cegterg:last :     20.92s CPU     20.93s WALL (     104 calls)
     h_psi        :     91.91s CPU     92.84s WALL (     300 calls)
     s_psi        :      8.88s CPU      8.90s WALL (     300 calls)
     g_psi        :      0.15s CPU      0.15s WALL (     236 calls)

     Called by h_psi:
     h_psi:calbec :      9.22s CPU      9.24s WALL (     300 calls)
     vloc_psi     :     73.39s CPU     74.23s WALL (     300 calls)
     add_vuspsi   :      8.91s CPU      8.93s WALL (     300 calls)

     General routines
     calbec       :     13.07s CPU     13.09s WALL (     360 calls)
     fft          :      1.19s CPU      1.23s WALL (      89 calls)
     ffts         :      0.22s CPU      0.23s WALL (      30 calls)
     fftw         :     73.74s CPU     74.66s WALL (   20664 calls)
     interpolate  :      0.36s CPU      0.37s WALL (      15 calls)

     Parallel routines
     fft_scatt_xy :     13.75s CPU     13.95s WALL (   20783 calls)
     fft_scatt_yz :      4.57s CPU      4.67s WALL (   20783 calls)

     PAW routines
     PAW_pot      :      0.88s CPU      0.88s WALL (      15 calls)
     PAW_symme    :      0.00s CPU      0.00s WALL (      30 calls)

     PWSCF        :   3m19.70s CPU   3m24.62s WALL


   This run was terminated on:  16: 5:45  14Jun2021            

=------------------------------------------------------------------------------=
   JOB DONE.
=------------------------------------------------------------------------------=
