
     Program PWSCF v.6.6 starts on 14Jun2021 at 15:56:43 

     This program is part of the open-source Quantum ESPRESSO suite
     for quantum simulation of materials; please cite
         "P. Giannozzi et al., J. Phys.:Condens. Matter 21 395502 (2009);
         "P. Giannozzi et al., J. Phys.:Condens. Matter 29 465901 (2017);
          URL http://www.quantum-espresso.org", 
     in publications or presentations arising from this work. More details at
     http://www.quantum-espresso.org/quote

     Parallel version (MPI), running on     2 processors

     MPI processes distributed on     1 nodes
     R & G space division:  proc/nbgrp/npool/nimage =       2
     Fft bands division:     nmany     =       1
     Waiting for input...
     Reading input from standard input

     Current dimensions of program PWSCF are:
     Max number of different atomic species (ntypx) = 10
     Max number of k-points (npk) =  40000
     Max angular momentum in pseudopotentials (lmaxx) =  3
     file Nb.pz-spn-kjpaw_psl.1.0.0.UPF: wavefunction(s)  4S 4P 4D renormalized
     file S.pz-n-kjpaw_psl.0.1.UPF: wavefunction(s)  3P renormalized

     Subspace diagonalization in iterative solution of the eigenvalue problem:
     a serial algorithm will be used


     Parallelization info
     --------------------
     sticks:   dense  smooth     PW     G-vecs:    dense   smooth      PW
     Min         534     237     69                85019    25591    4089
     Max         535     238     70                85022    25612    4104
     Sum        1069     475    139               170041    51203    8193



     bravais-lattice index     =            4
     lattice parameter (alat)  =       6.2006  a.u.
     unit-cell volume          =    1258.4114 (a.u.)^3
     number of atoms/cell      =            6
     number of atomic types    =            2
     number of electrons       =        50.00
     number of Kohn-Sham states=           60
     kinetic-energy cutoff     =      45.0000  Ry
     charge density cutoff     =     400.0000  Ry
     convergence threshold     =      1.0E-08
     mixing beta               =       0.7000
     number of iterations used =            8  plain     mixing
     Exchange-correlation= SLA PZ NOGX NOGC
                           (   1   1   0   0   0   0   0)

     celldm(1)=   6.200569  celldm(2)=   0.000000  celldm(3)=   6.095331
     celldm(4)=   0.000000  celldm(5)=   0.000000  celldm(6)=   0.000000

     crystal axes: (cart. coord. in units of alat)
               a(1) = (   1.000000   0.000000   0.000000 )  
               a(2) = (  -0.500000   0.866025   0.000000 )  
               a(3) = (   0.000000   0.000000   6.095331 )  

     reciprocal axes: (cart. coord. in units 2 pi/alat)
               b(1) = (  1.000000  0.577350 -0.000000 )  
               b(2) = (  0.000000  1.154701  0.000000 )  
               b(3) = (  0.000000 -0.000000  0.164060 )  


     PseudoPot. # 1 for Nb read from file:
     ../Nb.pz-spn-kjpaw_psl.1.0.0.UPF
     MD5 check sum: 38c2e04b3cc915696ca8dc9f46a23270
     Pseudo is Projector augmented-wave + core cor, Zval = 13.0
     Generated using "atomic" code by A. Dal Corso v.6.2.2
     Shape of augmentation charge: PSQ
     Using radial grid of 1227 points,  6 beta functions with: 
                l(1) =   0
                l(2) =   0
                l(3) =   1
                l(4) =   1
                l(5) =   2
                l(6) =   2
     Q(r) pseudized with 0 coefficients 


     PseudoPot. # 2 for S  read from file:
     ../S.pz-n-kjpaw_psl.0.1.UPF
     MD5 check sum: c0b1682311cf098e03f7841691d9a679
     Pseudo is Projector augmented-wave + core cor, Zval =  6.0
     Generated using "atomic" code by A. Dal Corso v.5.0.2 svn rev. 9415
     Shape of augmentation charge: PSQ
     Using radial grid of 1151 points,  4 beta functions with: 
                l(1) =   0
                l(2) =   0
                l(3) =   1
                l(4) =   1
     Q(r) pseudized with 0 coefficients 


     atomic species   valence    mass     pseudopotential
        Nb            13.00    92.90600     Nb( 1.00)
        S              6.00    32.06500     S ( 1.00)

      6 Sym. Ops. (no inversion) found


                                    s                        frac. trans.

      isym =  1     identity                                     

 cryst.   s( 1) = (     1          0          0      )
                  (     0          1          0      )
                  (     0          0          1      )

 cart.    s( 1) = (  1.0000000  0.0000000  0.0000000 )
                  (  0.0000000  1.0000000  0.0000000 )
                  (  0.0000000  0.0000000  1.0000000 )


      isym =  2     120 deg rotation - cryst. axis [0,0,1]       

 cryst.   s( 2) = (     0          1          0      )
                  (    -1         -1          0      )
                  (     0          0          1      )

 cart.    s( 2) = ( -0.5000000 -0.8660254  0.0000000 )
                  (  0.8660254 -0.5000000  0.0000000 )
                  (  0.0000000  0.0000000  1.0000000 )


      isym =  3     120 deg rotation - cryst. axis [0,0,-1]      

 cryst.   s( 3) = (    -1         -1          0      )
                  (     1          0          0      )
                  (     0          0          1      )

 cart.    s( 3) = ( -0.5000000  0.8660254  0.0000000 )
                  ( -0.8660254 -0.5000000  0.0000000 )
                  (  0.0000000  0.0000000  1.0000000 )


      isym =  4     inv. 180 deg rotation - cart. axis [1,0,0]   

 cryst.   s( 4) = (    -1          0          0      )
                  (     1          1          0      )
                  (     0          0          1      )

 cart.    s( 4) = ( -1.0000000  0.0000000  0.0000000 )
                  (  0.0000000  1.0000000  0.0000000 )
                  (  0.0000000  0.0000000  1.0000000 )


      isym =  5     inv. 180 deg rotation - cryst. axis [0,1,0]  

 cryst.   s( 5) = (     1          1          0      )
                  (     0         -1          0      )
                  (     0          0          1      )

 cart.    s( 5) = (  0.5000000  0.8660254  0.0000000 )
                  (  0.8660254 -0.5000000  0.0000000 )
                  (  0.0000000  0.0000000  1.0000000 )


      isym =  6     inv. 180 deg rotation - cryst. axis [1,1,0]  

 cryst.   s( 6) = (     0         -1          0      )
                  (    -1          0          0      )
                  (     0          0          1      )

 cart.    s( 6) = (  0.5000000 -0.8660254  0.0000000 )
                  ( -0.8660254 -0.5000000  0.0000000 )
                  (  0.0000000  0.0000000  1.0000000 )


     point group C_3v (3m)  
     there are  3 classes
     the character table:

       E     2C3   3s_v 
A_1    1.00  1.00  1.00
A_2    1.00  1.00 -1.00
E      2.00 -1.00  0.00

     the symmetry operations in each class and the name of the first element:

     E        1
          identity                                               
     2C3      2    3
          120 deg rotation - cryst. axis [0,0,1]                 
     3s_v     4    5    6
          inv. 180 deg rotation - cart. axis [1,0,0]             

   Cartesian axes

     site n.     atom                  positions (alat units)
         1           S   tau(   1) = (   0.0000000   0.5773503   1.4932768  )
         2           Nb  tau(   2) = (   0.0000000   0.0000000   1.0094618  )
         3           S   tau(   3) = (   0.0000000   0.5773503   0.5321904  )
         4           S   tau(   4) = (   0.5000000   0.2886751   2.5511139  )
         5           Nb  tau(   5) = (   0.0000000   0.0000000   3.0283905  )
         6           S   tau(   6) = (   0.5000000   0.2886751   3.5056620  )

   Crystallographic axes

     site n.     atom                  positions (cryst. coord.)
         1           S   tau(   1) = (  0.3333333  0.6666667  0.2449870  )
         2           Nb  tau(   2) = (  0.0000000  0.0000000  0.1656123  )
         3           S   tau(   3) = (  0.3333333  0.6666667  0.0873112  )
         4           S   tau(   4) = (  0.6666667  0.3333333  0.4185358  )
         5           Nb  tau(   5) = (  0.0000000  0.0000000  0.4968378  )
         6           S   tau(   6) = (  0.6666667  0.3333333  0.5751389  )

     number of k points=     4  Methfessel-Paxton smearing, width (Ry)=  0.0200
                       cart. coord. in units 2pi/alat
        k(    1) = (   0.0000000   0.0000000   0.0000000), wk =   0.1250000
        k(    2) = (   0.0000000   0.2886751   0.0000000), wk =   0.7500000
        k(    3) = (   0.0000000  -0.5773503   0.0000000), wk =   0.3750000
        k(    4) = (   0.2500000   0.4330127   0.0000000), wk =   0.7500000

                       cryst. coord.
        k(    1) = (   0.0000000   0.0000000   0.0000000), wk =   0.1250000
        k(    2) = (   0.0000000   0.2500000   0.0000000), wk =   0.7500000
        k(    3) = (   0.0000000  -0.5000000   0.0000000), wk =   0.3750000
        k(    4) = (   0.2500000   0.2500000   0.0000000), wk =   0.7500000

     Dense  grid:   170041 G-vectors     FFT dimensions: (  40,  40, 243)

     Smooth grid:    51203 G-vectors     FFT dimensions: (  27,  27, 162)

     Dynamical RAM for                 wfc:       2.94 MB

     Dynamical RAM for     wfc (w. buffer):      14.68 MB

     Dynamical RAM for           str. fact:       2.59 MB

     Dynamical RAM for           local pot:       0.00 MB

     Dynamical RAM for          nlocal pot:       3.33 MB

     Dynamical RAM for                qrad:       3.21 MB

     Dynamical RAM for          rho,v,vnew:       8.36 MB

     Dynamical RAM for               rhoin:       2.79 MB

     Dynamical RAM for            rho*nmix:      20.76 MB

     Dynamical RAM for           G-vectors:       5.06 MB

     Dynamical RAM for          h,s,v(r/c):       0.66 MB

     Dynamical RAM for          <psi|beta>:       0.06 MB

     Dynamical RAM for                 psi:       5.87 MB

     Dynamical RAM for                hpsi:       5.87 MB

     Dynamical RAM for                spsi:       5.87 MB

     Dynamical RAM for      wfcinit/wfcrot:       5.96 MB

     Dynamical RAM for           addusdens:     246.48 MB

     Estimated static dynamical RAM per process >      72.11 MB

     Estimated max dynamical RAM per process >     318.60 MB

     Estimated total dynamical RAM >     637.20 MB

     Initial potential from superposition of free atoms

     starting charge   49.99775, renormalised to   50.00000

     negative rho (up, down):  7.872E-05 0.000E+00
     Starting wfcs are   42 randomized atomic wfcs +   18 random wfcs
     Checking if some PAW data can be deallocated... 

     total cpu time spent up to now is        3.8 secs

     Self-consistent Calculation

     iteration #  1     ecut=    45.00 Ry     beta= 0.70
     Davidson diagonalization with overlap
     ethr =  1.00E-02,  avg # of iterations =  8.0

     Threshold (ethr) on eigenvalues was too large:
     Diagonalizing with lowered threshold

     Davidson diagonalization with overlap
     ethr =  5.46E-04,  avg # of iterations =  2.0

     negative rho (up, down):  1.251E-04 0.000E+00

     total cpu time spent up to now is       17.9 secs

     total energy              =    -907.79580432 Ry
     estimated scf accuracy    <       0.27410542 Ry

     iteration #  2     ecut=    45.00 Ry     beta= 0.70
     Davidson diagonalization with overlap
     ethr =  5.48E-04,  avg # of iterations =  6.8

     negative rho (up, down):  1.373E-04 0.000E+00

     total cpu time spent up to now is       24.6 secs

     total energy              =    -907.51528790 Ry
     estimated scf accuracy    <       3.37940955 Ry

     iteration #  3     ecut=    45.00 Ry     beta= 0.70
     Davidson diagonalization with overlap
     ethr =  5.48E-04,  avg # of iterations =  8.2

     negative rho (up, down):  1.208E-04 0.000E+00

     total cpu time spent up to now is       31.3 secs

     total energy              =    -907.18190580 Ry
     estimated scf accuracy    <      21.09940150 Ry

     iteration #  4     ecut=    45.00 Ry     beta= 0.70
     Davidson diagonalization with overlap
     ethr =  5.48E-04,  avg # of iterations =  6.2

     negative rho (up, down):  1.202E-04 0.000E+00

     total cpu time spent up to now is       37.5 secs

     total energy              =    -907.87839896 Ry
     estimated scf accuracy    <       1.61181771 Ry

     iteration #  5     ecut=    45.00 Ry     beta= 0.70
     Davidson diagonalization with overlap
     ethr =  5.48E-04,  avg # of iterations =  1.5

     negative rho (up, down):  1.222E-04 0.000E+00

     total cpu time spent up to now is       42.7 secs

     total energy              =    -907.89464362 Ry
     estimated scf accuracy    <       0.11334047 Ry

     iteration #  6     ecut=    45.00 Ry     beta= 0.70
     Davidson diagonalization with overlap
     ethr =  2.27E-04,  avg # of iterations =  2.2

     negative rho (up, down):  1.239E-04 0.000E+00

     total cpu time spent up to now is       47.9 secs

     total energy              =    -907.89848753 Ry
     estimated scf accuracy    <       0.05615747 Ry

     iteration #  7     ecut=    45.00 Ry     beta= 0.70
     Davidson diagonalization with overlap
     ethr =  1.12E-04,  avg # of iterations =  3.2

     negative rho (up, down):  1.268E-04 0.000E+00

     total cpu time spent up to now is       53.2 secs

     total energy              =    -907.89847688 Ry
     estimated scf accuracy    <       0.03303657 Ry

     iteration #  8     ecut=    45.00 Ry     beta= 0.70
     Davidson diagonalization with overlap
     ethr =  6.61E-05,  avg # of iterations =  3.8

     negative rho (up, down):  1.282E-04 0.000E+00

     total cpu time spent up to now is       58.3 secs

     total energy              =    -907.89908284 Ry
     estimated scf accuracy    <       0.22182156 Ry

     iteration #  9     ecut=    45.00 Ry     beta= 0.70
     Davidson diagonalization with overlap
     ethr =  6.61E-05,  avg # of iterations =  1.0

     negative rho (up, down):  1.307E-04 0.000E+00

     total cpu time spent up to now is       63.0 secs

     total energy              =    -907.90169814 Ry
     estimated scf accuracy    <       0.03071503 Ry

     iteration # 10     ecut=    45.00 Ry     beta= 0.70
     Davidson diagonalization with overlap
     ethr =  6.14E-05,  avg # of iterations =  1.0

     negative rho (up, down):  1.304E-04 0.000E+00

     total cpu time spent up to now is       67.7 secs

     total energy              =    -907.90046034 Ry
     estimated scf accuracy    <       0.06491643 Ry

     iteration # 11     ecut=    45.00 Ry     beta= 0.70
     Davidson diagonalization with overlap
     ethr =  6.14E-05,  avg # of iterations =  1.0

     negative rho (up, down):  1.311E-04 0.000E+00

     total cpu time spent up to now is       72.4 secs

     total energy              =    -907.90118728 Ry
     estimated scf accuracy    <       0.04630407 Ry

     iteration # 12     ecut=    45.00 Ry     beta= 0.70
     Davidson diagonalization with overlap
     ethr =  6.14E-05,  avg # of iterations =  1.0

     negative rho (up, down):  1.311E-04 0.000E+00

     total cpu time spent up to now is       77.1 secs

     total energy              =    -907.90150990 Ry
     estimated scf accuracy    <       0.00028224 Ry

     iteration # 13     ecut=    45.00 Ry     beta= 0.70
     Davidson diagonalization with overlap
     c_bands:  1 eigenvalues not converged
     ethr =  5.64E-07,  avg # of iterations = 10.8

     negative rho (up, down):  1.312E-04 0.000E+00

     total cpu time spent up to now is       83.0 secs

     total energy              =    -907.90151186 Ry
     estimated scf accuracy    <       0.00000031 Ry

     iteration # 14     ecut=    45.00 Ry     beta= 0.70
     Davidson diagonalization with overlap
     ethr =  6.27E-10,  avg # of iterations =  1.5

     negative rho (up, down):  1.312E-04 0.000E+00

     total cpu time spent up to now is       88.0 secs

     End of self-consistent calculation

          k = 0.0000 0.0000 0.0000 (  6489 PWs)   bands (ev):

   -51.4524 -51.4416 -27.6521 -27.6514 -27.4425 -27.4425 -27.4343 -27.4343
   -10.3646 -10.2972  -9.0682  -8.9693  -2.1272  -1.8223   0.9522   0.9522
     1.0054   1.0054   1.3870   2.0661   2.0661   2.1104   2.1104   2.1236
     3.8435   4.2753   6.3170   6.3170   6.3600   6.3600   6.4943   6.4943
     6.5233   6.5233   8.5429   8.7099   9.0095   9.6179  11.3518  11.5649
    11.6168  11.9747  13.8432  13.8432  13.8697  13.8697  14.0301  15.7589
    15.7904  15.7904  16.0386  16.0386  16.1222  17.1090  18.0441  18.5125
    18.6575  18.6575  18.7876  19.1671

     occupation numbers 
     1.0000   1.0000   1.0000   1.0000   1.0000   1.0000   1.0000   1.0000
     1.0000   1.0000   1.0000   1.0000   1.0000   1.0000   1.0000   1.0000
     1.0000   1.0000   1.0000   1.0000   1.0000   1.0000   1.0000   1.0000
    -0.0018  -0.0000  -0.0000  -0.0000  -0.0000  -0.0000  -0.0000  -0.0000
    -0.0000  -0.0000  -0.0000  -0.0000  -0.0000  -0.0000  -0.0000  -0.0000
    -0.0000  -0.0000  -0.0000  -0.0000  -0.0000  -0.0000  -0.0000  -0.0000
    -0.0000  -0.0000  -0.0000  -0.0000  -0.0000  -0.0000  -0.0000  -0.0000
    -0.0000  -0.0000  -0.0000  -0.0000

          k = 0.0000 0.2887 0.0000 (  6409 PWs)   bands (ev):

   -51.4297 -51.4187 -27.6707 -27.6644 -27.6033 -27.6020 -27.4935 -27.4856
    -9.6077  -9.5472  -8.8195  -8.7481  -1.4745  -1.2407  -0.3341  -0.2910
    -0.0025   0.1867   1.1038   1.1476   1.6740   1.7262   1.9579   2.3179
     3.1132   3.1991   5.8344   6.0836   6.1361   6.2265   6.5796   6.8155
     7.4590   7.5222   9.8960  10.3666  10.8638  11.5549  11.8404  12.3041
    12.4023  12.5033  12.9479  13.1215  14.2702  14.8067  14.9599  15.2077
    15.5322  15.6871  15.8539  16.1249  16.5252  16.5639  16.6836  17.1147
    17.3767  17.6337  17.9707  19.0847

     occupation numbers 
     1.0000   1.0000   1.0000   1.0000   1.0000   1.0000   1.0000   1.0000
     1.0000   1.0000   1.0000   1.0000   1.0000   1.0000   1.0000   1.0000
     1.0000   1.0000   1.0000   1.0000   1.0000   1.0000   1.0000   1.0000
     0.7353   0.4793  -0.0000  -0.0000  -0.0000  -0.0000  -0.0000  -0.0000
    -0.0000  -0.0000  -0.0000  -0.0000  -0.0000  -0.0000  -0.0000  -0.0000
    -0.0000  -0.0000  -0.0000  -0.0000  -0.0000  -0.0000  -0.0000  -0.0000
    -0.0000  -0.0000  -0.0000  -0.0000  -0.0000  -0.0000  -0.0000  -0.0000
    -0.0000  -0.0000  -0.0000  -0.0000

          k = 0.0000-0.5774 0.0000 (  6378 PWs)   bands (ev):

   -51.4070 -51.3959 -27.8902 -27.8855 -27.5539 -27.5520 -27.5439 -27.5363
    -8.6887  -8.6522  -8.5242  -8.4938  -2.0858  -2.0436  -1.1242  -0.9990
    -0.4302  -0.4013   0.4426   0.4897   1.5423   1.8847   2.2989   2.3525
     3.0244   3.1348   6.3743   6.3853   6.7961   6.8168   7.2735   7.5824
     8.0650   8.1870   9.2692   9.7988  11.0327  11.0720  11.4763  11.5652
    12.5118  12.5697  13.1719  13.3921  13.9260  13.9278  14.0484  14.3042
    15.0085  15.0526  16.4057  16.8462  17.6594  17.7154  17.8824  18.6480
    18.8153  19.0697  19.7154  19.9891

     occupation numbers 
     1.0000   1.0000   1.0000   1.0000   1.0000   1.0000   1.0000   1.0000
     1.0000   1.0000   1.0000   1.0000   1.0000   1.0000   1.0000   1.0000
     1.0000   1.0000   1.0000   1.0000   1.0000   1.0000   1.0000   1.0001
     0.9278   0.6747  -0.0000  -0.0000  -0.0000  -0.0000  -0.0000  -0.0000
    -0.0000  -0.0000  -0.0000  -0.0000  -0.0000  -0.0000  -0.0000  -0.0000
    -0.0000  -0.0000  -0.0000  -0.0000  -0.0000  -0.0000  -0.0000  -0.0000
    -0.0000  -0.0000  -0.0000  -0.0000  -0.0000  -0.0000  -0.0000  -0.0000
    -0.0000  -0.0000  -0.0000  -0.0000

          k = 0.2500 0.4330 0.0000 (  6413 PWs)   bands (ev):

   -51.4071 -51.3960 -27.8086 -27.8035 -27.6295 -27.6225 -27.5540 -27.5521
    -8.7065  -8.6655  -8.5040  -8.4702  -1.4650  -1.3846  -1.2431  -1.2079
    -0.1540  -0.0589   0.3606   0.5164   0.6675   0.6874   1.8398   1.9671
     3.2389   3.2612   5.9686   6.1735   6.7985   6.9022   7.0046   7.1219
     8.3432   8.3867  10.6746  10.8422  11.5409  11.5925  11.7515  12.6188
    12.8425  12.9142  13.0659  13.9549  14.3234  14.4327  14.7260  15.2394
    15.2625  15.3460  15.3957  15.6276  16.1087  16.7041  16.7096  17.3263
    17.4514  17.8620  18.0579  18.8090

     occupation numbers 
     1.0000   1.0000   1.0000   1.0000   1.0000   1.0000   1.0000   1.0000
     1.0000   1.0000   1.0000   1.0000   1.0000   1.0000   1.0000   1.0000
     1.0000   1.0000   1.0000   1.0000   1.0000   1.0000   1.0000   1.0000
     0.3577   0.2934  -0.0000  -0.0000  -0.0000  -0.0000  -0.0000  -0.0000
    -0.0000  -0.0000  -0.0000  -0.0000  -0.0000  -0.0000  -0.0000  -0.0000
    -0.0000  -0.0000  -0.0000  -0.0000  -0.0000  -0.0000  -0.0000  -0.0000
    -0.0000  -0.0000  -0.0000  -0.0000  -0.0000  -0.0000  -0.0000  -0.0000
    -0.0000  -0.0000  -0.0000  -0.0000

     the Fermi energy is     3.1924 ev

!    total energy              =    -907.90151187 Ry

     total all-electron energy =    -18448.310534 Ry
     estimated scf accuracy    <          4.0E-09 Ry
     smearing contrib. (-TS)   =      -0.00846822 Ry
     internal energy E=F+TS    =    -907.89304365 Ry

     The total energy is F=E-TS. E is the sum of the following terms:
     one-electron contribution =   -1048.02753333 Ry
     hartree contribution      =     537.53864805 Ry
     xc contribution           =     -65.32890124 Ry
     ewald contribution        =     256.18108273 Ry
     one-center paw contrib.   =    -588.25633985 Ry
      -> PAW hartree energy AE =     100.64770270 Ry
      -> PAW hartree energy PS =    -100.13274919 Ry
      -> PAW xc energy AE      =    -324.77565568 Ry
      -> PAW xc energy PS      =      30.13335329 Ry
      -> total E_H with PAW    =     538.05360156 Ry
      -> total E_XC with PAW   =    -359.97120363 Ry

     convergence has been achieved in  14 iterations

     Writing output data file ./tmp/NbS2_bi.save/

     init_run     :      2.61s CPU      2.77s WALL (       1 calls)
     electrons    :     80.43s CPU     84.23s WALL (       1 calls)

     Called by init_run:
     wfcinit      :      1.24s CPU      1.25s WALL (       1 calls)
     wfcinit:atom :      0.01s CPU      0.01s WALL (       4 calls)
     wfcinit:wfcr :      1.20s CPU      1.21s WALL (       4 calls)
     potinit      :      0.33s CPU      0.35s WALL (       1 calls)
     hinit0       :      0.61s CPU      0.62s WALL (       1 calls)

     Called by electrons:
     c_bands      :     57.15s CPU     57.58s WALL (      15 calls)
     sum_band     :     15.66s CPU     17.44s WALL (      15 calls)
     v_of_rho     :      0.47s CPU      0.50s WALL (      15 calls)
     v_h          :      0.26s CPU      0.28s WALL (      15 calls)
     v_xc         :      0.21s CPU      0.23s WALL (      15 calls)
     newd         :      5.85s CPU      7.25s WALL (      15 calls)
     PAW_pot      :      0.87s CPU      0.87s WALL (      15 calls)
     mix_rho      :      0.54s CPU      0.56s WALL (      15 calls)

     Called by c_bands:
     init_us_2    :      0.23s CPU      0.24s WALL (     124 calls)
     cegterg      :     56.50s CPU     56.91s WALL (      60 calls)

     Called by sum_band:
     sum_band:wei :      0.01s CPU      0.01s WALL (      15 calls)
     sum_band:loo :      6.96s CPU      7.04s WALL (      15 calls)
     sum_band:buf :      0.10s CPU      0.10s WALL (      60 calls)
     sum_band:ini :      0.11s CPU      0.11s WALL (      60 calls)
     sum_band:cal :      1.71s CPU      1.71s WALL (      60 calls)
     sum_band:bec :      0.01s CPU      0.01s WALL (      60 calls)
     addusdens    :      8.33s CPU      9.99s WALL (      15 calls)
     addusd:skk   :      0.05s CPU      0.05s WALL (      30 calls)
     addusd:dgemm :      3.29s CPU      4.71s WALL (      30 calls)
     addusd:qvan2 :      4.52s CPU      4.52s WALL (      30 calls)

     Called by *egterg:
     cdiaghg      :      1.65s CPU      1.66s WALL (     289 calls)
     cegterg:over :      6.94s CPU      6.95s WALL (     233 calls)
     cegterg:upda :      3.83s CPU      3.84s WALL (     233 calls)
     cegterg:last :      9.77s CPU      9.79s WALL (     105 calls)
     h_psi        :     28.07s CPU     28.41s WALL (     297 calls)
     s_psi        :      3.72s CPU      3.74s WALL (     297 calls)
     g_psi        :      0.08s CPU      0.08s WALL (     233 calls)

     Called by h_psi:
     h_psi:calbec :      4.13s CPU      4.14s WALL (     297 calls)
     vloc_psi     :     20.17s CPU     20.48s WALL (     297 calls)
     add_vuspsi   :      3.57s CPU      3.58s WALL (     297 calls)

     General routines
     calbec       :      5.83s CPU      5.84s WALL (     357 calls)
     fft          :      1.20s CPU      1.24s WALL (      89 calls)
     ffts         :      0.07s CPU      0.07s WALL (      30 calls)
     fftw         :     21.72s CPU     22.06s WALL (   20660 calls)
     interpolate  :      0.26s CPU      0.27s WALL (      15 calls)

     Parallel routines
     fft_scatt_xy :      2.80s CPU      2.84s WALL (   20779 calls)
     fft_scatt_yz :      1.99s CPU      2.04s WALL (   20779 calls)

     PAW routines
     PAW_pot      :      0.87s CPU      0.87s WALL (      15 calls)
     PAW_symme    :      0.00s CPU      0.00s WALL (      30 calls)

     PWSCF        :   1m24.06s CPU   1m28.24s WALL


   This run was terminated on:  15:58:12  14Jun2021            

=------------------------------------------------------------------------------=
   JOB DONE.
=------------------------------------------------------------------------------=
