
     Program PWSCF v.6.6 starts on 14Jun2021 at 15:54:29 

     This program is part of the open-source Quantum ESPRESSO suite
     for quantum simulation of materials; please cite
         "P. Giannozzi et al., J. Phys.:Condens. Matter 21 395502 (2009);
         "P. Giannozzi et al., J. Phys.:Condens. Matter 29 465901 (2017);
          URL http://www.quantum-espresso.org", 
     in publications or presentations arising from this work. More details at
     http://www.quantum-espresso.org/quote

     Parallel version (MPI), running on     2 processors

     MPI processes distributed on     1 nodes
     R & G space division:  proc/nbgrp/npool/nimage =       2
     Fft bands division:     nmany     =       1
     Waiting for input...
     Reading input from standard input

     Current dimensions of program PWSCF are:
     Max number of different atomic species (ntypx) = 10
     Max number of k-points (npk) =  40000
     Max angular momentum in pseudopotentials (lmaxx) =  3
     file Nb.pz-spn-kjpaw_psl.1.0.0.UPF: wavefunction(s)  4S 4P 4D renormalized
     file S.pz-n-kjpaw_psl.0.1.UPF: wavefunction(s)  3P renormalized

     Subspace diagonalization in iterative solution of the eigenvalue problem:
     a serial algorithm will be used


     Parallelization info
     --------------------
     sticks:   dense  smooth     PW     G-vecs:    dense   smooth      PW
     Min         534     183     54                85019    17607    2904
     Max         535     184     55                85022    17618    2923
     Sum        1069     367    109               170041    35225    5827



     bravais-lattice index     =            4
     lattice parameter (alat)  =       6.2006  a.u.
     unit-cell volume          =    1258.4114 (a.u.)^3
     number of atoms/cell      =            6
     number of atomic types    =            2
     number of electrons       =        50.00
     number of Kohn-Sham states=           60
     kinetic-energy cutoff     =      35.0000  Ry
     charge density cutoff     =     400.0000  Ry
     convergence threshold     =      1.0E-08
     mixing beta               =       0.7000
     number of iterations used =            8  plain     mixing
     Exchange-correlation= SLA PZ NOGX NOGC
                           (   1   1   0   0   0   0   0)

     celldm(1)=   6.200569  celldm(2)=   0.000000  celldm(3)=   6.095331
     celldm(4)=   0.000000  celldm(5)=   0.000000  celldm(6)=   0.000000

     crystal axes: (cart. coord. in units of alat)
               a(1) = (   1.000000   0.000000   0.000000 )  
               a(2) = (  -0.500000   0.866025   0.000000 )  
               a(3) = (   0.000000   0.000000   6.095331 )  

     reciprocal axes: (cart. coord. in units 2 pi/alat)
               b(1) = (  1.000000  0.577350 -0.000000 )  
               b(2) = (  0.000000  1.154701  0.000000 )  
               b(3) = (  0.000000 -0.000000  0.164060 )  


     PseudoPot. # 1 for Nb read from file:
     ../Nb.pz-spn-kjpaw_psl.1.0.0.UPF
     MD5 check sum: 38c2e04b3cc915696ca8dc9f46a23270
     Pseudo is Projector augmented-wave + core cor, Zval = 13.0
     Generated using "atomic" code by A. Dal Corso v.6.2.2
     Shape of augmentation charge: PSQ
     Using radial grid of 1227 points,  6 beta functions with: 
                l(1) =   0
                l(2) =   0
                l(3) =   1
                l(4) =   1
                l(5) =   2
                l(6) =   2
     Q(r) pseudized with 0 coefficients 


     PseudoPot. # 2 for S  read from file:
     ../S.pz-n-kjpaw_psl.0.1.UPF
     MD5 check sum: c0b1682311cf098e03f7841691d9a679
     Pseudo is Projector augmented-wave + core cor, Zval =  6.0
     Generated using "atomic" code by A. Dal Corso v.5.0.2 svn rev. 9415
     Shape of augmentation charge: PSQ
     Using radial grid of 1151 points,  4 beta functions with: 
                l(1) =   0
                l(2) =   0
                l(3) =   1
                l(4) =   1
     Q(r) pseudized with 0 coefficients 


     atomic species   valence    mass     pseudopotential
        Nb            13.00    92.90600     Nb( 1.00)
        S              6.00    32.06500     S ( 1.00)

      6 Sym. Ops. (no inversion) found


                                    s                        frac. trans.

      isym =  1     identity                                     

 cryst.   s( 1) = (     1          0          0      )
                  (     0          1          0      )
                  (     0          0          1      )

 cart.    s( 1) = (  1.0000000  0.0000000  0.0000000 )
                  (  0.0000000  1.0000000  0.0000000 )
                  (  0.0000000  0.0000000  1.0000000 )


      isym =  2     120 deg rotation - cryst. axis [0,0,1]       

 cryst.   s( 2) = (     0          1          0      )
                  (    -1         -1          0      )
                  (     0          0          1      )

 cart.    s( 2) = ( -0.5000000 -0.8660254  0.0000000 )
                  (  0.8660254 -0.5000000  0.0000000 )
                  (  0.0000000  0.0000000  1.0000000 )


      isym =  3     120 deg rotation - cryst. axis [0,0,-1]      

 cryst.   s( 3) = (    -1         -1          0      )
                  (     1          0          0      )
                  (     0          0          1      )

 cart.    s( 3) = ( -0.5000000  0.8660254  0.0000000 )
                  ( -0.8660254 -0.5000000  0.0000000 )
                  (  0.0000000  0.0000000  1.0000000 )


      isym =  4     inv. 180 deg rotation - cart. axis [1,0,0]   

 cryst.   s( 4) = (    -1          0          0      )
                  (     1          1          0      )
                  (     0          0          1      )

 cart.    s( 4) = ( -1.0000000  0.0000000  0.0000000 )
                  (  0.0000000  1.0000000  0.0000000 )
                  (  0.0000000  0.0000000  1.0000000 )


      isym =  5     inv. 180 deg rotation - cryst. axis [0,1,0]  

 cryst.   s( 5) = (     1          1          0      )
                  (     0         -1          0      )
                  (     0          0          1      )

 cart.    s( 5) = (  0.5000000  0.8660254  0.0000000 )
                  (  0.8660254 -0.5000000  0.0000000 )
                  (  0.0000000  0.0000000  1.0000000 )


      isym =  6     inv. 180 deg rotation - cryst. axis [1,1,0]  

 cryst.   s( 6) = (     0         -1          0      )
                  (    -1          0          0      )
                  (     0          0          1      )

 cart.    s( 6) = (  0.5000000 -0.8660254  0.0000000 )
                  ( -0.8660254 -0.5000000  0.0000000 )
                  (  0.0000000  0.0000000  1.0000000 )


     point group C_3v (3m)  
     there are  3 classes
     the character table:

       E     2C3   3s_v 
A_1    1.00  1.00  1.00
A_2    1.00  1.00 -1.00
E      2.00 -1.00  0.00

     the symmetry operations in each class and the name of the first element:

     E        1
          identity                                               
     2C3      2    3
          120 deg rotation - cryst. axis [0,0,1]                 
     3s_v     4    5    6
          inv. 180 deg rotation - cart. axis [1,0,0]             

   Cartesian axes

     site n.     atom                  positions (alat units)
         1           S   tau(   1) = (   0.0000000   0.5773503   1.4932768  )
         2           Nb  tau(   2) = (   0.0000000   0.0000000   1.0094618  )
         3           S   tau(   3) = (   0.0000000   0.5773503   0.5321904  )
         4           S   tau(   4) = (   0.5000000   0.2886751   2.5511139  )
         5           Nb  tau(   5) = (   0.0000000   0.0000000   3.0283905  )
         6           S   tau(   6) = (   0.5000000   0.2886751   3.5056620  )

   Crystallographic axes

     site n.     atom                  positions (cryst. coord.)
         1           S   tau(   1) = (  0.3333333  0.6666667  0.2449870  )
         2           Nb  tau(   2) = (  0.0000000  0.0000000  0.1656123  )
         3           S   tau(   3) = (  0.3333333  0.6666667  0.0873112  )
         4           S   tau(   4) = (  0.6666667  0.3333333  0.4185358  )
         5           Nb  tau(   5) = (  0.0000000  0.0000000  0.4968378  )
         6           S   tau(   6) = (  0.6666667  0.3333333  0.5751389  )

     number of k points=     4  Methfessel-Paxton smearing, width (Ry)=  0.0200
                       cart. coord. in units 2pi/alat
        k(    1) = (   0.0000000   0.0000000   0.0000000), wk =   0.1250000
        k(    2) = (   0.0000000   0.2886751   0.0000000), wk =   0.7500000
        k(    3) = (   0.0000000  -0.5773503   0.0000000), wk =   0.3750000
        k(    4) = (   0.2500000   0.4330127   0.0000000), wk =   0.7500000

                       cryst. coord.
        k(    1) = (   0.0000000   0.0000000   0.0000000), wk =   0.1250000
        k(    2) = (   0.0000000   0.2500000   0.0000000), wk =   0.7500000
        k(    3) = (   0.0000000  -0.5000000   0.0000000), wk =   0.3750000
        k(    4) = (   0.2500000   0.2500000   0.0000000), wk =   0.7500000

     Dense  grid:   170041 G-vectors     FFT dimensions: (  40,  40, 243)

     Smooth grid:    35225 G-vectors     FFT dimensions: (  24,  24, 144)

     Dynamical RAM for                 wfc:       2.01 MB

     Dynamical RAM for     wfc (w. buffer):      10.07 MB

     Dynamical RAM for           str. fact:       2.59 MB

     Dynamical RAM for           local pot:       0.00 MB

     Dynamical RAM for          nlocal pot:       2.28 MB

     Dynamical RAM for                qrad:       3.21 MB

     Dynamical RAM for          rho,v,vnew:       8.36 MB

     Dynamical RAM for               rhoin:       2.79 MB

     Dynamical RAM for            rho*nmix:      20.76 MB

     Dynamical RAM for           G-vectors:       5.00 MB

     Dynamical RAM for          h,s,v(r/c):       0.66 MB

     Dynamical RAM for          <psi|beta>:       0.06 MB

     Dynamical RAM for                 psi:       4.03 MB

     Dynamical RAM for                hpsi:       4.03 MB

     Dynamical RAM for                spsi:       4.03 MB

     Dynamical RAM for      wfcinit/wfcrot:       4.11 MB

     Dynamical RAM for           addusdens:     246.48 MB

     Estimated static dynamical RAM per process >      66.40 MB

     Estimated max dynamical RAM per process >     312.88 MB

     Estimated total dynamical RAM >     625.77 MB

     Initial potential from superposition of free atoms

     starting charge   49.99775, renormalised to   50.00000

     negative rho (up, down):  7.872E-05 0.000E+00
     Starting wfcs are   42 randomized atomic wfcs +   18 random wfcs
     Checking if some PAW data can be deallocated... 

     total cpu time spent up to now is        3.2 secs

     Self-consistent Calculation

     iteration #  1     ecut=    35.00 Ry     beta= 0.70
     Davidson diagonalization with overlap
     ethr =  1.00E-02,  avg # of iterations =  8.0

     Threshold (ethr) on eigenvalues was too large:
     Diagonalizing with lowered threshold

     Davidson diagonalization with overlap
     ethr =  5.45E-04,  avg # of iterations =  5.2

     negative rho (up, down):  1.233E-04 0.000E+00

     total cpu time spent up to now is       12.4 secs

     total energy              =    -907.78817035 Ry
     estimated scf accuracy    <       0.27387504 Ry

     iteration #  2     ecut=    35.00 Ry     beta= 0.70
     Davidson diagonalization with overlap
     ethr =  5.48E-04,  avg # of iterations =  5.5

     negative rho (up, down):  1.377E-04 0.000E+00

     total cpu time spent up to now is       16.7 secs

     total energy              =    -907.50793473 Ry
     estimated scf accuracy    <       3.37466738 Ry

     iteration #  3     ecut=    35.00 Ry     beta= 0.70
     Davidson diagonalization with overlap
     ethr =  5.48E-04,  avg # of iterations =  9.0

     negative rho (up, down):  1.304E-04 0.000E+00

     total cpu time spent up to now is       21.2 secs

     total energy              =    -907.17353657 Ry
     estimated scf accuracy    <      21.17223539 Ry

     iteration #  4     ecut=    35.00 Ry     beta= 0.70
     Davidson diagonalization with overlap
     ethr =  5.48E-04,  avg # of iterations =  6.5

     negative rho (up, down):  1.162E-04 0.000E+00

     total cpu time spent up to now is       25.4 secs

     total energy              =    -907.87154587 Ry
     estimated scf accuracy    <       1.56993560 Ry

     iteration #  5     ecut=    35.00 Ry     beta= 0.70
     Davidson diagonalization with overlap
     ethr =  5.48E-04,  avg # of iterations =  1.2

     negative rho (up, down):  1.185E-04 0.000E+00

     total cpu time spent up to now is       28.7 secs

     total energy              =    -907.88687014 Ry
     estimated scf accuracy    <       0.11959774 Ry

     iteration #  6     ecut=    35.00 Ry     beta= 0.70
     Davidson diagonalization with overlap
     ethr =  2.39E-04,  avg # of iterations =  2.0

     negative rho (up, down):  1.213E-04 0.000E+00

     total cpu time spent up to now is       32.1 secs

     total energy              =    -907.89086556 Ry
     estimated scf accuracy    <       0.05640570 Ry

     iteration #  7     ecut=    35.00 Ry     beta= 0.70
     Davidson diagonalization with overlap
     ethr =  1.13E-04,  avg # of iterations =  3.0

     negative rho (up, down):  1.249E-04 0.000E+00

     total cpu time spent up to now is       35.7 secs

     total energy              =    -907.89082102 Ry
     estimated scf accuracy    <       0.03510440 Ry

     iteration #  8     ecut=    35.00 Ry     beta= 0.70
     Davidson diagonalization with overlap
     ethr =  7.02E-05,  avg # of iterations =  3.8

     negative rho (up, down):  1.269E-04 0.000E+00

     total cpu time spent up to now is       39.2 secs

     total energy              =    -907.89145826 Ry
     estimated scf accuracy    <       0.22590341 Ry

     iteration #  9     ecut=    35.00 Ry     beta= 0.70
     Davidson diagonalization with overlap
     ethr =  7.02E-05,  avg # of iterations =  1.0

     negative rho (up, down):  1.287E-04 0.000E+00

     total cpu time spent up to now is       42.4 secs

     total energy              =    -907.89406946 Ry
     estimated scf accuracy    <       0.02788231 Ry

     iteration # 10     ecut=    35.00 Ry     beta= 0.70
     Davidson diagonalization with overlap
     ethr =  5.58E-05,  avg # of iterations =  1.0

     negative rho (up, down):  1.285E-04 0.000E+00

     total cpu time spent up to now is       45.6 secs

     total energy              =    -907.89276422 Ry
     estimated scf accuracy    <       0.07013938 Ry

     iteration # 11     ecut=    35.00 Ry     beta= 0.70
     Davidson diagonalization with overlap
     ethr =  5.58E-05,  avg # of iterations =  1.0

     negative rho (up, down):  1.291E-04 0.000E+00

     total cpu time spent up to now is       48.8 secs

     total energy              =    -907.89354845 Ry
     estimated scf accuracy    <       0.04614825 Ry

     iteration # 12     ecut=    35.00 Ry     beta= 0.70
     Davidson diagonalization with overlap
     ethr =  5.58E-05,  avg # of iterations =  1.0

     negative rho (up, down):  1.291E-04 0.000E+00

     total cpu time spent up to now is       52.0 secs

     total energy              =    -907.89387005 Ry
     estimated scf accuracy    <       0.00028184 Ry

     iteration # 13     ecut=    35.00 Ry     beta= 0.70
     Davidson diagonalization with overlap
     c_bands:  1 eigenvalues not converged
     ethr =  5.64E-07,  avg # of iterations = 10.2

     negative rho (up, down):  1.292E-04 0.000E+00

     total cpu time spent up to now is       56.0 secs

     total energy              =    -907.89387201 Ry
     estimated scf accuracy    <       0.00000030 Ry

     iteration # 14     ecut=    35.00 Ry     beta= 0.70
     Davidson diagonalization with overlap
     ethr =  5.91E-10,  avg # of iterations =  1.8

     negative rho (up, down):  1.291E-04 0.000E+00

     total cpu time spent up to now is       59.4 secs

     End of self-consistent calculation

          k = 0.0000 0.0000 0.0000 (  4385 PWs)   bands (ev):

   -51.4660 -51.4552 -27.6585 -27.6572 -27.4499 -27.4499 -27.4417 -27.4417
   -10.3648 -10.2973  -9.0686  -8.9698  -2.1268  -1.8215   0.9515   0.9515
     1.0047   1.0047   1.3869   2.0661   2.0661   2.1105   2.1105   2.1234
     3.8434   4.2754   6.3168   6.3168   6.3607   6.3607   6.4940   6.4940
     6.5230   6.5230   8.5444   8.7121   9.0105   9.6187  11.3536  11.5662
    11.6205  11.9789  13.8536  13.8536  13.8792  13.8792  14.0323  15.7644
    15.8008  15.8008  16.0502  16.0502  16.1284  17.1106  18.0464  18.5139
    18.6739  18.6739  18.7894  19.1836

     occupation numbers 
     1.0000   1.0000   1.0000   1.0000   1.0000   1.0000   1.0000   1.0000
     1.0000   1.0000   1.0000   1.0000   1.0000   1.0000   1.0000   1.0000
     1.0000   1.0000   1.0000   1.0000   1.0000   1.0000   1.0000   1.0000
    -0.0018  -0.0000  -0.0000  -0.0000  -0.0000  -0.0000  -0.0000  -0.0000
    -0.0000  -0.0000  -0.0000  -0.0000  -0.0000  -0.0000  -0.0000  -0.0000
    -0.0000  -0.0000  -0.0000  -0.0000  -0.0000  -0.0000  -0.0000  -0.0000
    -0.0000  -0.0000  -0.0000  -0.0000  -0.0000  -0.0000  -0.0000  -0.0000
    -0.0000  -0.0000  -0.0000  -0.0000

          k = 0.0000 0.2887 0.0000 (  4400 PWs)   bands (ev):

   -51.4433 -51.4324 -27.6774 -27.6711 -27.6099 -27.6086 -27.5007 -27.4928
    -9.6080  -9.5474  -8.8200  -8.7485  -1.4746  -1.2410  -0.3338  -0.2907
    -0.0027   0.1865   1.1036   1.1474   1.6736   1.7258   1.9578   2.3179
     3.1129   3.1987   5.8346   6.0835   6.1360   6.2266   6.5798   6.8159
     7.4593   7.5223   9.8968  10.3680  10.8672  11.5582  11.8452  12.3089
    12.4077  12.5080  12.9523  13.1248  14.2747  14.8128  14.9660  15.2127
    15.5395  15.6988  15.8646  16.1367  16.5321  16.5770  16.6903  17.1261
    17.3819  17.6466  17.9798  19.0876

     occupation numbers 
     1.0000   1.0000   1.0000   1.0000   1.0000   1.0000   1.0000   1.0000
     1.0000   1.0000   1.0000   1.0000   1.0000   1.0000   1.0000   1.0000
     1.0000   1.0000   1.0000   1.0000   1.0000   1.0000   1.0000   1.0000
     0.7354   0.4797  -0.0000  -0.0000  -0.0000  -0.0000  -0.0000  -0.0000
    -0.0000  -0.0000  -0.0000  -0.0000  -0.0000  -0.0000  -0.0000  -0.0000
    -0.0000  -0.0000  -0.0000  -0.0000  -0.0000  -0.0000  -0.0000  -0.0000
    -0.0000  -0.0000  -0.0000  -0.0000  -0.0000  -0.0000  -0.0000  -0.0000
    -0.0000  -0.0000  -0.0000  -0.0000

          k = 0.0000-0.5774 0.0000 (  4404 PWs)   bands (ev):

   -51.4205 -51.4095 -27.8961 -27.8915 -27.5603 -27.5584 -27.5512 -27.5436
    -8.6892  -8.6527  -8.5246  -8.4942  -2.0852  -2.0430  -1.1244  -0.9992
    -0.4304  -0.4016   0.4423   0.4894   1.5424   1.8848   2.2987   2.3523
     3.0242   3.1348   6.3729   6.3847   6.7967   6.8172   7.2748   7.5834
     8.0660   8.1874   9.2747   9.8057  11.0381  11.0759  11.4803  11.5699
    12.5139  12.5724  13.1752  13.3971  13.9293  13.9332  14.0498  14.3113
    15.0115  15.0558  16.4085  16.8506  17.6649  17.7212  17.8938  18.6527
    18.8309  19.0750  19.7334  20.0092

     occupation numbers 
     1.0000   1.0000   1.0000   1.0000   1.0000   1.0000   1.0000   1.0000
     1.0000   1.0000   1.0000   1.0000   1.0000   1.0000   1.0000   1.0000
     1.0000   1.0000   1.0000   1.0000   1.0000   1.0000   1.0000   1.0001
     0.9275   0.6741  -0.0000  -0.0000  -0.0000  -0.0000  -0.0000  -0.0000
    -0.0000  -0.0000  -0.0000  -0.0000  -0.0000  -0.0000  -0.0000  -0.0000
    -0.0000  -0.0000  -0.0000  -0.0000  -0.0000  -0.0000  -0.0000  -0.0000
    -0.0000  -0.0000  -0.0000  -0.0000  -0.0000  -0.0000  -0.0000  -0.0000
    -0.0000  -0.0000  -0.0000  -0.0000

          k = 0.2500 0.4330 0.0000 (  4416 PWs)   bands (ev):

   -51.4205 -51.4095 -27.8153 -27.8102 -27.6361 -27.6291 -27.5603 -27.5584
    -8.7070  -8.6661  -8.5044  -8.4706  -1.4651  -1.3847  -1.2434  -1.2082
    -0.1536  -0.0586   0.3604   0.5163   0.6673   0.6872   1.8398   1.9672
     3.2388   3.2609   5.9687   6.1735   6.7989   6.9025   7.0055   7.1229
     8.3433   8.3869  10.6798  10.8475  11.5446  11.5964  11.7549  12.6237
    12.8500  12.9191  13.0712  13.9585  14.3288  14.4373  14.7322  15.2459
    15.2678  15.3523  15.4022  15.6362  16.1155  16.7091  16.7135  17.3304
    17.4551  17.8664  18.0631  18.8155

     occupation numbers 
     1.0000   1.0000   1.0000   1.0000   1.0000   1.0000   1.0000   1.0000
     1.0000   1.0000   1.0000   1.0000   1.0000   1.0000   1.0000   1.0000
     1.0000   1.0000   1.0000   1.0000   1.0000   1.0000   1.0000   1.0000
     0.3573   0.2937  -0.0000  -0.0000  -0.0000  -0.0000  -0.0000  -0.0000
    -0.0000  -0.0000  -0.0000  -0.0000  -0.0000  -0.0000  -0.0000  -0.0000
    -0.0000  -0.0000  -0.0000  -0.0000  -0.0000  -0.0000  -0.0000  -0.0000
    -0.0000  -0.0000  -0.0000  -0.0000  -0.0000  -0.0000  -0.0000  -0.0000
    -0.0000  -0.0000  -0.0000  -0.0000

     the Fermi energy is     3.1922 ev

!    total energy              =    -907.89387201 Ry

     total all-electron energy =    -18448.302894 Ry
     estimated scf accuracy    <          5.0E-09 Ry
     smearing contrib. (-TS)   =      -0.00846986 Ry
     internal energy E=F+TS    =    -907.88540216 Ry

     The total energy is F=E-TS. E is the sum of the following terms:
     one-electron contribution =   -1048.02855685 Ry
     hartree contribution      =     537.53199728 Ry
     xc contribution           =     -65.32683312 Ry
     ewald contribution        =     256.18108273 Ry
     one-center paw contrib.   =    -588.24309219 Ry
      -> PAW hartree energy AE =     100.63672557 Ry
      -> PAW hartree energy PS =    -100.12476661 Ry
      -> PAW xc energy AE      =    -324.75870260 Ry
      -> PAW xc energy PS      =      30.12601919 Ry
      -> total E_H with PAW    =     538.04395625 Ry
      -> total E_XC with PAW   =    -359.95951653 Ry

     convergence has been achieved in  14 iterations

     Writing output data file ./tmp/NbS2_bi.save/

     init_run     :      2.06s CPU      2.18s WALL (       1 calls)
     electrons    :     52.94s CPU     56.24s WALL (       1 calls)

     Called by init_run:
     wfcinit      :      0.67s CPU      0.68s WALL (       1 calls)
     wfcinit:atom :      0.00s CPU      0.00s WALL (       4 calls)
     wfcinit:wfcr :      0.65s CPU      0.66s WALL (       4 calls)
     potinit      :      0.33s CPU      0.34s WALL (       1 calls)
     hinit0       :      0.60s CPU      0.61s WALL (       1 calls)

     Called by electrons:
     c_bands      :     32.81s CPU     33.08s WALL (      15 calls)
     sum_band     :     12.46s CPU     14.19s WALL (      15 calls)
     v_of_rho     :      0.49s CPU      0.51s WALL (      15 calls)
     v_h          :      0.27s CPU      0.27s WALL (      15 calls)
     v_xc         :      0.22s CPU      0.24s WALL (      15 calls)
     newd         :      5.97s CPU      7.30s WALL (      15 calls)
     PAW_pot      :      0.88s CPU      0.88s WALL (      15 calls)
     mix_rho      :      0.50s CPU      0.51s WALL (      15 calls)

     Called by c_bands:
     init_us_2    :      0.15s CPU      0.15s WALL (     124 calls)
     cegterg      :     32.38s CPU     32.63s WALL (      60 calls)

     Called by sum_band:
     sum_band:wei :      0.01s CPU      0.01s WALL (      15 calls)
     sum_band:loo :      3.56s CPU      3.63s WALL (      15 calls)
     sum_band:buf :      0.07s CPU      0.07s WALL (      60 calls)
     sum_band:ini :      0.07s CPU      0.07s WALL (      60 calls)
     sum_band:cal :      1.02s CPU      1.02s WALL (      60 calls)
     sum_band:bec :      0.01s CPU      0.01s WALL (      60 calls)
     addusdens    :      8.56s CPU     10.20s WALL (      15 calls)
     addusd:skk   :      0.04s CPU      0.05s WALL (      30 calls)
     addusd:dgemm :      3.31s CPU      4.69s WALL (      30 calls)
     addusd:qvan2 :      4.74s CPU      4.75s WALL (      30 calls)

     Called by *egterg:
     cdiaghg      :      1.62s CPU      1.62s WALL (     297 calls)
     cegterg:over :      4.01s CPU      4.02s WALL (     241 calls)
     cegterg:upda :      2.17s CPU      2.17s WALL (     241 calls)
     cegterg:last :      6.12s CPU      6.13s WALL (     104 calls)
     h_psi        :     14.84s CPU     15.05s WALL (     305 calls)
     s_psi        :      2.10s CPU      2.11s WALL (     305 calls)
     g_psi        :      0.05s CPU      0.05s WALL (     241 calls)

     Called by h_psi:
     h_psi:calbec :      2.51s CPU      2.52s WALL (     305 calls)
     vloc_psi     :     10.17s CPU     10.36s WALL (     305 calls)
     add_vuspsi   :      2.03s CPU      2.04s WALL (     305 calls)

     General routines
     calbec       :      3.53s CPU      3.54s WALL (     365 calls)
     fft          :      1.20s CPU      1.25s WALL (      89 calls)
     ffts         :      0.04s CPU      0.04s WALL (      30 calls)
     fftw         :     11.20s CPU     11.43s WALL (   20636 calls)
     interpolate  :      0.24s CPU      0.25s WALL (      15 calls)

     Parallel routines
     fft_scatt_xy :      1.46s CPU      1.49s WALL (   20755 calls)
     fft_scatt_yz :      1.39s CPU      1.44s WALL (   20755 calls)

     PAW routines
     PAW_pot      :      0.88s CPU      0.88s WALL (      15 calls)
     PAW_symme    :      0.01s CPU      0.01s WALL (      30 calls)

     PWSCF        :     56.08s CPU     59.66s WALL


   This run was terminated on:  15:55:29  14Jun2021            

=------------------------------------------------------------------------------=
   JOB DONE.
=------------------------------------------------------------------------------=
