
     Program PWSCF v.6.6 starts on 14Jun2021 at 15:53:31 

     This program is part of the open-source Quantum ESPRESSO suite
     for quantum simulation of materials; please cite
         "P. Giannozzi et al., J. Phys.:Condens. Matter 21 395502 (2009);
         "P. Giannozzi et al., J. Phys.:Condens. Matter 29 465901 (2017);
          URL http://www.quantum-espresso.org", 
     in publications or presentations arising from this work. More details at
     http://www.quantum-espresso.org/quote

     Parallel version (MPI), running on     2 processors

     MPI processes distributed on     1 nodes
     R & G space division:  proc/nbgrp/npool/nimage =       2
     Fft bands division:     nmany     =       1
     Waiting for input...
     Reading input from standard input

     Current dimensions of program PWSCF are:
     Max number of different atomic species (ntypx) = 10
     Max number of k-points (npk) =  40000
     Max angular momentum in pseudopotentials (lmaxx) =  3
     file Nb.pz-spn-kjpaw_psl.1.0.0.UPF: wavefunction(s)  4S 4P 4D renormalized
     file S.pz-n-kjpaw_psl.0.1.UPF: wavefunction(s)  3P renormalized

     Subspace diagonalization in iterative solution of the eigenvalue problem:
     a serial algorithm will be used


     Parallelization info
     --------------------
     sticks:   dense  smooth     PW     G-vecs:    dense   smooth      PW
     Min         534     156     45                85019    13964    2335
     Max         535     157     46                85022    13983    2340
     Sum        1069     313     91               170041    27947    4675



     bravais-lattice index     =            4
     lattice parameter (alat)  =       6.2006  a.u.
     unit-cell volume          =    1258.4114 (a.u.)^3
     number of atoms/cell      =            6
     number of atomic types    =            2
     number of electrons       =        50.00
     number of Kohn-Sham states=           60
     kinetic-energy cutoff     =      30.0000  Ry
     charge density cutoff     =     400.0000  Ry
     convergence threshold     =      1.0E-08
     mixing beta               =       0.7000
     number of iterations used =            8  plain     mixing
     Exchange-correlation= SLA PZ NOGX NOGC
                           (   1   1   0   0   0   0   0)

     celldm(1)=   6.200569  celldm(2)=   0.000000  celldm(3)=   6.095331
     celldm(4)=   0.000000  celldm(5)=   0.000000  celldm(6)=   0.000000

     crystal axes: (cart. coord. in units of alat)
               a(1) = (   1.000000   0.000000   0.000000 )  
               a(2) = (  -0.500000   0.866025   0.000000 )  
               a(3) = (   0.000000   0.000000   6.095331 )  

     reciprocal axes: (cart. coord. in units 2 pi/alat)
               b(1) = (  1.000000  0.577350 -0.000000 )  
               b(2) = (  0.000000  1.154701  0.000000 )  
               b(3) = (  0.000000 -0.000000  0.164060 )  


     PseudoPot. # 1 for Nb read from file:
     ../Nb.pz-spn-kjpaw_psl.1.0.0.UPF
     MD5 check sum: 38c2e04b3cc915696ca8dc9f46a23270
     Pseudo is Projector augmented-wave + core cor, Zval = 13.0
     Generated using "atomic" code by A. Dal Corso v.6.2.2
     Shape of augmentation charge: PSQ
     Using radial grid of 1227 points,  6 beta functions with: 
                l(1) =   0
                l(2) =   0
                l(3) =   1
                l(4) =   1
                l(5) =   2
                l(6) =   2
     Q(r) pseudized with 0 coefficients 


     PseudoPot. # 2 for S  read from file:
     ../S.pz-n-kjpaw_psl.0.1.UPF
     MD5 check sum: c0b1682311cf098e03f7841691d9a679
     Pseudo is Projector augmented-wave + core cor, Zval =  6.0
     Generated using "atomic" code by A. Dal Corso v.5.0.2 svn rev. 9415
     Shape of augmentation charge: PSQ
     Using radial grid of 1151 points,  4 beta functions with: 
                l(1) =   0
                l(2) =   0
                l(3) =   1
                l(4) =   1
     Q(r) pseudized with 0 coefficients 


     atomic species   valence    mass     pseudopotential
        Nb            13.00    92.90600     Nb( 1.00)
        S              6.00    32.06500     S ( 1.00)

      6 Sym. Ops. (no inversion) found


                                    s                        frac. trans.

      isym =  1     identity                                     

 cryst.   s( 1) = (     1          0          0      )
                  (     0          1          0      )
                  (     0          0          1      )

 cart.    s( 1) = (  1.0000000  0.0000000  0.0000000 )
                  (  0.0000000  1.0000000  0.0000000 )
                  (  0.0000000  0.0000000  1.0000000 )


      isym =  2     120 deg rotation - cryst. axis [0,0,1]       

 cryst.   s( 2) = (     0          1          0      )
                  (    -1         -1          0      )
                  (     0          0          1      )

 cart.    s( 2) = ( -0.5000000 -0.8660254  0.0000000 )
                  (  0.8660254 -0.5000000  0.0000000 )
                  (  0.0000000  0.0000000  1.0000000 )


      isym =  3     120 deg rotation - cryst. axis [0,0,-1]      

 cryst.   s( 3) = (    -1         -1          0      )
                  (     1          0          0      )
                  (     0          0          1      )

 cart.    s( 3) = ( -0.5000000  0.8660254  0.0000000 )
                  ( -0.8660254 -0.5000000  0.0000000 )
                  (  0.0000000  0.0000000  1.0000000 )


      isym =  4     inv. 180 deg rotation - cart. axis [1,0,0]   

 cryst.   s( 4) = (    -1          0          0      )
                  (     1          1          0      )
                  (     0          0          1      )

 cart.    s( 4) = ( -1.0000000  0.0000000  0.0000000 )
                  (  0.0000000  1.0000000  0.0000000 )
                  (  0.0000000  0.0000000  1.0000000 )


      isym =  5     inv. 180 deg rotation - cryst. axis [0,1,0]  

 cryst.   s( 5) = (     1          1          0      )
                  (     0         -1          0      )
                  (     0          0          1      )

 cart.    s( 5) = (  0.5000000  0.8660254  0.0000000 )
                  (  0.8660254 -0.5000000  0.0000000 )
                  (  0.0000000  0.0000000  1.0000000 )


      isym =  6     inv. 180 deg rotation - cryst. axis [1,1,0]  

 cryst.   s( 6) = (     0         -1          0      )
                  (    -1          0          0      )
                  (     0          0          1      )

 cart.    s( 6) = (  0.5000000 -0.8660254  0.0000000 )
                  ( -0.8660254 -0.5000000  0.0000000 )
                  (  0.0000000  0.0000000  1.0000000 )


     point group C_3v (3m)  
     there are  3 classes
     the character table:

       E     2C3   3s_v 
A_1    1.00  1.00  1.00
A_2    1.00  1.00 -1.00
E      2.00 -1.00  0.00

     the symmetry operations in each class and the name of the first element:

     E        1
          identity                                               
     2C3      2    3
          120 deg rotation - cryst. axis [0,0,1]                 
     3s_v     4    5    6
          inv. 180 deg rotation - cart. axis [1,0,0]             

   Cartesian axes

     site n.     atom                  positions (alat units)
         1           S   tau(   1) = (   0.0000000   0.5773503   1.4932768  )
         2           Nb  tau(   2) = (   0.0000000   0.0000000   1.0094618  )
         3           S   tau(   3) = (   0.0000000   0.5773503   0.5321904  )
         4           S   tau(   4) = (   0.5000000   0.2886751   2.5511139  )
         5           Nb  tau(   5) = (   0.0000000   0.0000000   3.0283905  )
         6           S   tau(   6) = (   0.5000000   0.2886751   3.5056620  )

   Crystallographic axes

     site n.     atom                  positions (cryst. coord.)
         1           S   tau(   1) = (  0.3333333  0.6666667  0.2449870  )
         2           Nb  tau(   2) = (  0.0000000  0.0000000  0.1656123  )
         3           S   tau(   3) = (  0.3333333  0.6666667  0.0873112  )
         4           S   tau(   4) = (  0.6666667  0.3333333  0.4185358  )
         5           Nb  tau(   5) = (  0.0000000  0.0000000  0.4968378  )
         6           S   tau(   6) = (  0.6666667  0.3333333  0.5751389  )

     number of k points=     4  Methfessel-Paxton smearing, width (Ry)=  0.0200
                       cart. coord. in units 2pi/alat
        k(    1) = (   0.0000000   0.0000000   0.0000000), wk =   0.1250000
        k(    2) = (   0.0000000   0.2886751   0.0000000), wk =   0.7500000
        k(    3) = (   0.0000000  -0.5773503   0.0000000), wk =   0.3750000
        k(    4) = (   0.2500000   0.4330127   0.0000000), wk =   0.7500000

                       cryst. coord.
        k(    1) = (   0.0000000   0.0000000   0.0000000), wk =   0.1250000
        k(    2) = (   0.0000000   0.2500000   0.0000000), wk =   0.7500000
        k(    3) = (   0.0000000  -0.5000000   0.0000000), wk =   0.3750000
        k(    4) = (   0.2500000   0.2500000   0.0000000), wk =   0.7500000

     Dense  grid:   170041 G-vectors     FFT dimensions: (  40,  40, 243)

     Smooth grid:    27947 G-vectors     FFT dimensions: (  24,  24, 135)

     Dynamical RAM for                 wfc:       1.60 MB

     Dynamical RAM for     wfc (w. buffer):       7.99 MB

     Dynamical RAM for           str. fact:       2.59 MB

     Dynamical RAM for           local pot:       0.00 MB

     Dynamical RAM for          nlocal pot:       1.81 MB

     Dynamical RAM for                qrad:       3.21 MB

     Dynamical RAM for          rho,v,vnew:       8.36 MB

     Dynamical RAM for               rhoin:       2.79 MB

     Dynamical RAM for            rho*nmix:      20.76 MB

     Dynamical RAM for           G-vectors:       4.97 MB

     Dynamical RAM for          h,s,v(r/c):       0.66 MB

     Dynamical RAM for          <psi|beta>:       0.06 MB

     Dynamical RAM for                 psi:       3.20 MB

     Dynamical RAM for                hpsi:       3.20 MB

     Dynamical RAM for                spsi:       3.20 MB

     Dynamical RAM for      wfcinit/wfcrot:       3.28 MB

     Dynamical RAM for           addusdens:     246.48 MB

     Estimated static dynamical RAM per process >      63.82 MB

     Estimated max dynamical RAM per process >     310.31 MB

     Estimated total dynamical RAM >     620.61 MB

     Initial potential from superposition of free atoms

     starting charge   49.99775, renormalised to   50.00000

     negative rho (up, down):  7.872E-05 0.000E+00
     Starting wfcs are   42 randomized atomic wfcs +   18 random wfcs
     Checking if some PAW data can be deallocated... 

     total cpu time spent up to now is        3.1 secs

     Self-consistent Calculation

     iteration #  1     ecut=    30.00 Ry     beta= 0.70
     Davidson diagonalization with overlap
     ethr =  1.00E-02,  avg # of iterations =  8.0

     Threshold (ethr) on eigenvalues was too large:
     Diagonalizing with lowered threshold

     Davidson diagonalization with overlap
     ethr =  5.49E-04,  avg # of iterations =  1.8

     negative rho (up, down):  1.157E-04 0.000E+00

     total cpu time spent up to now is       10.5 secs

     total energy              =    -907.73909141 Ry
     estimated scf accuracy    <       0.27617917 Ry

     iteration #  2     ecut=    30.00 Ry     beta= 0.70
     Davidson diagonalization with overlap
     ethr =  5.52E-04,  avg # of iterations =  7.2

     negative rho (up, down):  1.775E-04 0.000E+00

     total cpu time spent up to now is       14.4 secs

     total energy              =    -907.45753076 Ry
     estimated scf accuracy    <       3.35212948 Ry

     iteration #  3     ecut=    30.00 Ry     beta= 0.70
     Davidson diagonalization with overlap
     ethr =  5.52E-04,  avg # of iterations =  8.5

     negative rho (up, down):  1.943E-04 0.000E+00

     total cpu time spent up to now is       18.2 secs

     total energy              =    -907.07685351 Ry
     estimated scf accuracy    <      23.00996034 Ry

     iteration #  4     ecut=    30.00 Ry     beta= 0.70
     Davidson diagonalization with overlap
     ethr =  5.52E-04,  avg # of iterations =  6.0

     negative rho (up, down):  1.194E-04 0.000E+00

     total cpu time spent up to now is       21.7 secs

     total energy              =    -907.82816184 Ry
     estimated scf accuracy    <       1.35542069 Ry

     iteration #  5     ecut=    30.00 Ry     beta= 0.70
     Davidson diagonalization with overlap
     ethr =  5.52E-04,  avg # of iterations =  1.8

     negative rho (up, down):  1.158E-04 0.000E+00

     total cpu time spent up to now is       24.7 secs

     total energy              =    -907.83763278 Ry
     estimated scf accuracy    <       0.20238458 Ry

     iteration #  6     ecut=    30.00 Ry     beta= 0.70
     Davidson diagonalization with overlap
     ethr =  4.05E-04,  avg # of iterations =  1.5

     negative rho (up, down):  1.149E-04 0.000E+00

     total cpu time spent up to now is       27.7 secs

     total energy              =    -907.84288714 Ry
     estimated scf accuracy    <       0.04655304 Ry

     iteration #  7     ecut=    30.00 Ry     beta= 0.70
     Davidson diagonalization with overlap
     ethr =  9.31E-05,  avg # of iterations =  4.2

     negative rho (up, down):  1.155E-04 0.000E+00

     total cpu time spent up to now is       30.8 secs

     total energy              =    -907.84247717 Ry
     estimated scf accuracy    <       0.05384258 Ry

     iteration #  8     ecut=    30.00 Ry     beta= 0.70
     Davidson diagonalization with overlap
     ethr =  9.31E-05,  avg # of iterations =  3.5

     negative rho (up, down):  1.204E-04 0.000E+00

     total cpu time spent up to now is       33.8 secs

     total energy              =    -907.84356047 Ry
     estimated scf accuracy    <       0.26806182 Ry

     iteration #  9     ecut=    30.00 Ry     beta= 0.70
     Davidson diagonalization with overlap
     ethr =  9.31E-05,  avg # of iterations =  1.0

     negative rho (up, down):  1.182E-04 0.000E+00

     total cpu time spent up to now is       36.6 secs

     total energy              =    -907.84584385 Ry
     estimated scf accuracy    <       0.00596316 Ry

     iteration # 10     ecut=    30.00 Ry     beta= 0.70
     Davidson diagonalization with overlap
     ethr =  1.19E-05,  avg # of iterations =  6.5

     negative rho (up, down):  1.194E-04 0.000E+00

     total cpu time spent up to now is       39.8 secs

     total energy              =    -907.84378661 Ry
     estimated scf accuracy    <       0.16142480 Ry

     iteration # 11     ecut=    30.00 Ry     beta= 0.70
     Davidson diagonalization with overlap
     ethr =  1.19E-05,  avg # of iterations =  2.8

     negative rho (up, down):  1.184E-04 0.000E+00

     total cpu time spent up to now is       42.8 secs

     total energy              =    -907.84543396 Ry
     estimated scf accuracy    <       0.03667206 Ry

     iteration # 12     ecut=    30.00 Ry     beta= 0.70
     Davidson diagonalization with overlap
     ethr =  1.19E-05,  avg # of iterations =  1.0

     negative rho (up, down):  1.183E-04 0.000E+00

     total cpu time spent up to now is       45.6 secs

     total energy              =    -907.84569952 Ry
     estimated scf accuracy    <       0.00034892 Ry

     iteration # 13     ecut=    30.00 Ry     beta= 0.70
     Davidson diagonalization with overlap
     ethr =  6.98E-07,  avg # of iterations =  2.8

     negative rho (up, down):  1.184E-04 0.000E+00

     total cpu time spent up to now is       48.6 secs

     total energy              =    -907.84570191 Ry
     estimated scf accuracy    <       0.00000035 Ry

     iteration # 14     ecut=    30.00 Ry     beta= 0.70
     Davidson diagonalization with overlap
     ethr =  6.98E-10,  avg # of iterations =  1.2

     negative rho (up, down):  1.184E-04 0.000E+00

     total cpu time spent up to now is       51.5 secs

     total energy              =    -907.84570192 Ry
     estimated scf accuracy    <       0.00000001 Ry

     iteration # 15     ecut=    30.00 Ry     beta= 0.70
     Davidson diagonalization with overlap
     ethr =  2.48E-11,  avg # of iterations =  2.2

     negative rho (up, down):  1.184E-04 0.000E+00

     total cpu time spent up to now is       54.6 secs

     total energy              =    -907.84570192 Ry
     estimated scf accuracy    <       0.00000001 Ry

     iteration # 16     ecut=    30.00 Ry     beta= 0.70
     Davidson diagonalization with overlap
     ethr =  2.30E-11,  avg # of iterations =  1.0

     negative rho (up, down):  1.184E-04 0.000E+00

     total cpu time spent up to now is       57.4 secs

     End of self-consistent calculation

          k = 0.0000 0.0000 0.0000 (  3593 PWs)   bands (ev):

   -51.5344 -51.5235 -27.6967 -27.6960 -27.4928 -27.4928 -27.4836 -27.4836
   -10.3660 -10.2983  -9.0700  -8.9713  -2.1261  -1.8215   0.9487   0.9487
     1.0021   1.0021   1.3871   2.0658   2.0658   2.1103   2.1103   2.1234
     3.8441   4.2770   6.3211   6.3211   6.3664   6.3664   6.4945   6.4945
     6.5249   6.5249   8.5462   8.7148   9.0131   9.6212  11.3583  11.5694
    11.6270  11.9875  13.8701  13.8701  13.8978  13.8978  14.0365  15.7738
    15.8278  15.8278  16.0775  16.0775  16.1388  17.1162  18.0517  18.5162
    18.6945  18.6947  18.7924  19.2120

     occupation numbers 
     1.0000   1.0000   1.0000   1.0000   1.0000   1.0000   1.0000   1.0000
     1.0000   1.0000   1.0000   1.0000   1.0000   1.0000   1.0000   1.0000
     1.0000   1.0000   1.0000   1.0000   1.0000   1.0000   1.0000   1.0000
    -0.0019  -0.0000  -0.0000  -0.0000  -0.0000  -0.0000  -0.0000  -0.0000
    -0.0000  -0.0000  -0.0000  -0.0000  -0.0000  -0.0000  -0.0000  -0.0000
    -0.0000  -0.0000  -0.0000  -0.0000  -0.0000  -0.0000  -0.0000  -0.0000
    -0.0000  -0.0000  -0.0000  -0.0000  -0.0000  -0.0000  -0.0000  -0.0000
    -0.0000  -0.0000  -0.0000  -0.0000

          k = 0.0000 0.2887 0.0000 (  3505 PWs)   bands (ev):

   -51.5086 -51.4978 -27.7142 -27.7077 -27.6453 -27.6440 -27.5391 -27.5313
    -9.6096  -9.5490  -8.8208  -8.7496  -1.4746  -1.2412  -0.3335  -0.2905
    -0.0019   0.1871   1.1051   1.1489   1.6739   1.7262   1.9580   2.3181
     3.1148   3.1999   5.8397   6.0872   6.1405   6.2311   6.5890   6.8232
     7.4681   7.5311   9.9003  10.3722  10.8734  11.5650  11.8566  12.3178
    12.4206  12.5160  12.9628  13.1340  14.2850  14.8269  14.9852  15.2251
    15.5606  15.7219  15.8905  16.1673  16.5496  16.6092  16.7062  17.1530
    17.3940  17.6748  17.9999  19.0951

     occupation numbers 
     1.0000   1.0000   1.0000   1.0000   1.0000   1.0000   1.0000   1.0000
     1.0000   1.0000   1.0000   1.0000   1.0000   1.0000   1.0000   1.0000
     1.0000   1.0000   1.0000   1.0000   1.0000   1.0000   1.0000   1.0000
     0.7336   0.4800  -0.0000  -0.0000  -0.0000  -0.0000  -0.0000  -0.0000
    -0.0000  -0.0000  -0.0000  -0.0000  -0.0000  -0.0000  -0.0000  -0.0000
    -0.0000  -0.0000  -0.0000  -0.0000  -0.0000  -0.0000  -0.0000  -0.0000
    -0.0000  -0.0000  -0.0000  -0.0000  -0.0000  -0.0000  -0.0000  -0.0000
    -0.0000  -0.0000  -0.0000  -0.0000

          k = 0.0000-0.5774 0.0000 (  3472 PWs)   bands (ev):

   -51.4858 -51.4748 -27.9320 -27.9269 -27.5971 -27.5952 -27.5884 -27.5807
    -8.6911  -8.6546  -8.5253  -8.4949  -2.0854  -2.0437  -1.1255  -1.0002
    -0.4311  -0.4019   0.4432   0.4905   1.5438   1.8856   2.2980   2.3518
     3.0231   3.1332   6.3845   6.3960   6.8007   6.8220   7.2779   7.5884
     8.0761   8.1984   9.2831   9.8159  11.0490  11.0842  11.4877  11.5843
    12.5213  12.5808  13.1864  13.4105  13.9349  13.9517  14.0548  14.3311
    15.0209  15.0645  16.4176  16.8612  17.6778  17.7362  17.9200  18.6657
    18.8608  19.0890  19.7840  20.1080

     occupation numbers 
     1.0000   1.0000   1.0000   1.0000   1.0000   1.0000   1.0000   1.0000
     1.0000   1.0000   1.0000   1.0000   1.0000   1.0000   1.0000   1.0000
     1.0000   1.0000   1.0000   1.0000   1.0000   1.0000   1.0000   1.0001
     0.9313   0.6822  -0.0000  -0.0000  -0.0000  -0.0000  -0.0000  -0.0000
    -0.0000  -0.0000  -0.0000  -0.0000  -0.0000  -0.0000  -0.0000  -0.0000
    -0.0000  -0.0000  -0.0000  -0.0000  -0.0000  -0.0000  -0.0000  -0.0000
    -0.0000  -0.0000  -0.0000  -0.0000  -0.0000  -0.0000  -0.0000  -0.0000
    -0.0000  -0.0000  -0.0000  -0.0000

          k = 0.2500 0.4330 0.0000 (  3469 PWs)   bands (ev):

   -51.4850 -51.4740 -27.8499 -27.8446 -27.6720 -27.6649 -27.5967 -27.5941
    -8.7087  -8.6678  -8.5051  -8.4712  -1.4651  -1.3847  -1.2434  -1.2080
    -0.1520  -0.0571   0.3607   0.5166   0.6667   0.6866   1.8404   1.9680
     3.2406   3.2632   5.9740   6.1770   6.8103   6.9113   7.0179   7.1336
     8.3502   8.3939  10.6886  10.8566  11.5544  11.6052  11.7624  12.6345
    12.8663  12.9296  13.0814  13.9674  14.3438  14.4487  14.7515  15.2625
    15.2822  15.3662  15.4194  15.6600  16.1326  16.7228  16.7251  17.3425
    17.4657  17.8763  18.0765  18.8320

     occupation numbers 
     1.0000   1.0000   1.0000   1.0000   1.0000   1.0000   1.0000   1.0000
     1.0000   1.0000   1.0000   1.0000   1.0000   1.0000   1.0000   1.0000
     1.0000   1.0000   1.0000   1.0000   1.0000   1.0000   1.0000   1.0000
     0.3558   0.2907  -0.0000  -0.0000  -0.0000  -0.0000  -0.0000  -0.0000
    -0.0000  -0.0000  -0.0000  -0.0000  -0.0000  -0.0000  -0.0000  -0.0000
    -0.0000  -0.0000  -0.0000  -0.0000  -0.0000  -0.0000  -0.0000  -0.0000
    -0.0000  -0.0000  -0.0000  -0.0000  -0.0000  -0.0000  -0.0000  -0.0000
    -0.0000  -0.0000  -0.0000  -0.0000

     the Fermi energy is     3.1934 ev

!    total energy              =    -907.84570192 Ry

     total all-electron energy =    -18448.254724 Ry
     estimated scf accuracy    <          1.9E-09 Ry
     smearing contrib. (-TS)   =      -0.00843214 Ry
     internal energy E=F+TS    =    -907.83726978 Ry

     The total energy is F=E-TS. E is the sum of the following terms:
     one-electron contribution =   -1047.97085500 Ry
     hartree contribution      =     537.46303556 Ry
     xc contribution           =     -65.31320276 Ry
     ewald contribution        =     256.18108273 Ry
     one-center paw contrib.   =    -588.19733030 Ry
      -> PAW hartree energy AE =      99.50918416 Ry
      -> PAW hartree energy PS =     -99.00523136 Ry
      -> PAW xc energy AE      =    -324.58178833 Ry
      -> PAW xc energy PS      =      29.98000126 Ry
      -> total E_H with PAW    =     537.96698836 Ry
      -> total E_XC with PAW   =    -359.91498983 Ry

     convergence has been achieved in  16 iterations

     Writing output data file ./tmp/NbS2_bi.save/

     init_run     :      1.90s CPU      2.03s WALL (       1 calls)
     electrons    :     50.47s CPU     54.34s WALL (       1 calls)

     Called by init_run:
     wfcinit      :      0.53s CPU      0.54s WALL (       1 calls)
     wfcinit:atom :      0.00s CPU      0.00s WALL (       4 calls)
     wfcinit:wfcr :      0.51s CPU      0.53s WALL (       4 calls)
     potinit      :      0.31s CPU      0.33s WALL (       1 calls)
     hinit0       :      0.60s CPU      0.60s WALL (       1 calls)

     Called by electrons:
     c_bands      :     28.70s CPU     28.96s WALL (      17 calls)
     sum_band     :     13.13s CPU     15.14s WALL (      17 calls)
     v_of_rho     :      0.55s CPU      0.59s WALL (      17 calls)
     v_h          :      0.29s CPU      0.31s WALL (      17 calls)
     v_xc         :      0.25s CPU      0.28s WALL (      17 calls)
     newd         :      6.67s CPU      8.27s WALL (      17 calls)
     PAW_pot      :      0.99s CPU      0.99s WALL (      17 calls)
     mix_rho      :      0.56s CPU      0.57s WALL (      17 calls)

     Called by c_bands:
     init_us_2    :      0.14s CPU      0.14s WALL (     140 calls)
     cegterg      :     28.32s CPU     28.56s WALL (      68 calls)

     Called by sum_band:
     sum_band:wei :      0.01s CPU      0.01s WALL (      17 calls)
     sum_band:loo :      3.25s CPU      3.32s WALL (      17 calls)
     sum_band:buf :      0.06s CPU      0.06s WALL (      68 calls)
     sum_band:ini :      0.06s CPU      0.06s WALL (      68 calls)
     sum_band:cal :      0.86s CPU      0.86s WALL (      68 calls)
     sum_band:bec :      0.01s CPU      0.01s WALL (      68 calls)
     addusdens    :      9.41s CPU     11.33s WALL (      17 calls)
     addusd:skk   :      0.04s CPU      0.05s WALL (      34 calls)
     addusd:dgemm :      3.70s CPU      5.32s WALL (      34 calls)
     addusd:qvan2 :      5.14s CPU      5.14s WALL (      34 calls)

     Called by *egterg:
     cdiaghg      :      1.70s CPU      1.70s WALL (     308 calls)
     cegterg:over :      3.36s CPU      3.36s WALL (     244 calls)
     cegterg:upda :      1.69s CPU      1.69s WALL (     244 calls)
     cegterg:last :      5.04s CPU      5.04s WALL (     119 calls)
     h_psi        :     13.57s CPU     13.78s WALL (     316 calls)
     s_psi        :      1.63s CPU      1.66s WALL (     316 calls)
     g_psi        :      0.04s CPU      0.04s WALL (     244 calls)

     Called by h_psi:
     h_psi:calbec :      2.06s CPU      2.07s WALL (     316 calls)
     vloc_psi     :      9.77s CPU      9.97s WALL (     316 calls)
     add_vuspsi   :      1.63s CPU      1.63s WALL (     316 calls)

     General routines
     calbec       :      2.91s CPU      2.93s WALL (     384 calls)
     fft          :      1.34s CPU      1.39s WALL (     101 calls)
     ffts         :      0.04s CPU      0.04s WALL (      34 calls)
     fftw         :     10.77s CPU     11.00s WALL (   23056 calls)
     interpolate  :      0.26s CPU      0.28s WALL (      17 calls)

     Parallel routines
     fft_scatt_xy :      1.42s CPU      1.45s WALL (   23191 calls)
     fft_scatt_yz :      1.20s CPU      1.26s WALL (   23191 calls)

     PAW routines
     PAW_pot      :      0.99s CPU      0.99s WALL (      17 calls)
     PAW_symme    :      0.00s CPU      0.00s WALL (      34 calls)

     PWSCF        :     53.45s CPU     57.60s WALL


   This run was terminated on:  15:54:29  14Jun2021            

=------------------------------------------------------------------------------=
   JOB DONE.
=------------------------------------------------------------------------------=
