
     Program PWSCF v.6.6 starts on 14Jun2021 at 15:59:56 

     This program is part of the open-source Quantum ESPRESSO suite
     for quantum simulation of materials; please cite
         "P. Giannozzi et al., J. Phys.:Condens. Matter 21 395502 (2009);
         "P. Giannozzi et al., J. Phys.:Condens. Matter 29 465901 (2017);
          URL http://www.quantum-espresso.org", 
     in publications or presentations arising from this work. More details at
     http://www.quantum-espresso.org/quote

     Parallel version (MPI), running on     2 processors

     MPI processes distributed on     1 nodes
     R & G space division:  proc/nbgrp/npool/nimage =       2
     Fft bands division:     nmany     =       1
     Waiting for input...
     Reading input from standard input

     Current dimensions of program PWSCF are:
     Max number of different atomic species (ntypx) = 10
     Max number of k-points (npk) =  40000
     Max angular momentum in pseudopotentials (lmaxx) =  3
     file Nb.pz-spn-kjpaw_psl.1.0.0.UPF: wavefunction(s)  4S 4P 4D renormalized
     file S.pz-n-kjpaw_psl.0.1.UPF: wavefunction(s)  3P renormalized

     Subspace diagonalization in iterative solution of the eigenvalue problem:
     a serial algorithm will be used


     Parallelization info
     --------------------
     sticks:   dense  smooth     PW     G-vecs:    dense   smooth      PW
     Min         534     323     93                85019    39541    6167
     Max         535     326     94                85022    39546    6180
     Sum        1069     649    187               170041    79087   12347



     bravais-lattice index     =            4
     lattice parameter (alat)  =       6.2006  a.u.
     unit-cell volume          =    1258.4114 (a.u.)^3
     number of atoms/cell      =            6
     number of atomic types    =            2
     number of electrons       =        50.00
     number of Kohn-Sham states=           60
     kinetic-energy cutoff     =      60.0000  Ry
     charge density cutoff     =     400.0000  Ry
     convergence threshold     =      1.0E-08
     mixing beta               =       0.7000
     number of iterations used =            8  plain     mixing
     Exchange-correlation= SLA PZ NOGX NOGC
                           (   1   1   0   0   0   0   0)

     celldm(1)=   6.200569  celldm(2)=   0.000000  celldm(3)=   6.095331
     celldm(4)=   0.000000  celldm(5)=   0.000000  celldm(6)=   0.000000

     crystal axes: (cart. coord. in units of alat)
               a(1) = (   1.000000   0.000000   0.000000 )  
               a(2) = (  -0.500000   0.866025   0.000000 )  
               a(3) = (   0.000000   0.000000   6.095331 )  

     reciprocal axes: (cart. coord. in units 2 pi/alat)
               b(1) = (  1.000000  0.577350 -0.000000 )  
               b(2) = (  0.000000  1.154701  0.000000 )  
               b(3) = (  0.000000 -0.000000  0.164060 )  


     PseudoPot. # 1 for Nb read from file:
     ../Nb.pz-spn-kjpaw_psl.1.0.0.UPF
     MD5 check sum: 38c2e04b3cc915696ca8dc9f46a23270
     Pseudo is Projector augmented-wave + core cor, Zval = 13.0
     Generated using "atomic" code by A. Dal Corso v.6.2.2
     Shape of augmentation charge: PSQ
     Using radial grid of 1227 points,  6 beta functions with: 
                l(1) =   0
                l(2) =   0
                l(3) =   1
                l(4) =   1
                l(5) =   2
                l(6) =   2
     Q(r) pseudized with 0 coefficients 


     PseudoPot. # 2 for S  read from file:
     ../S.pz-n-kjpaw_psl.0.1.UPF
     MD5 check sum: c0b1682311cf098e03f7841691d9a679
     Pseudo is Projector augmented-wave + core cor, Zval =  6.0
     Generated using "atomic" code by A. Dal Corso v.5.0.2 svn rev. 9415
     Shape of augmentation charge: PSQ
     Using radial grid of 1151 points,  4 beta functions with: 
                l(1) =   0
                l(2) =   0
                l(3) =   1
                l(4) =   1
     Q(r) pseudized with 0 coefficients 


     atomic species   valence    mass     pseudopotential
        Nb            13.00    92.90600     Nb( 1.00)
        S              6.00    32.06500     S ( 1.00)

      6 Sym. Ops. (no inversion) found


                                    s                        frac. trans.

      isym =  1     identity                                     

 cryst.   s( 1) = (     1          0          0      )
                  (     0          1          0      )
                  (     0          0          1      )

 cart.    s( 1) = (  1.0000000  0.0000000  0.0000000 )
                  (  0.0000000  1.0000000  0.0000000 )
                  (  0.0000000  0.0000000  1.0000000 )


      isym =  2     120 deg rotation - cryst. axis [0,0,1]       

 cryst.   s( 2) = (     0          1          0      )
                  (    -1         -1          0      )
                  (     0          0          1      )

 cart.    s( 2) = ( -0.5000000 -0.8660254  0.0000000 )
                  (  0.8660254 -0.5000000  0.0000000 )
                  (  0.0000000  0.0000000  1.0000000 )


      isym =  3     120 deg rotation - cryst. axis [0,0,-1]      

 cryst.   s( 3) = (    -1         -1          0      )
                  (     1          0          0      )
                  (     0          0          1      )

 cart.    s( 3) = ( -0.5000000  0.8660254  0.0000000 )
                  ( -0.8660254 -0.5000000  0.0000000 )
                  (  0.0000000  0.0000000  1.0000000 )


      isym =  4     inv. 180 deg rotation - cart. axis [1,0,0]   

 cryst.   s( 4) = (    -1          0          0      )
                  (     1          1          0      )
                  (     0          0          1      )

 cart.    s( 4) = ( -1.0000000  0.0000000  0.0000000 )
                  (  0.0000000  1.0000000  0.0000000 )
                  (  0.0000000  0.0000000  1.0000000 )


      isym =  5     inv. 180 deg rotation - cryst. axis [0,1,0]  

 cryst.   s( 5) = (     1          1          0      )
                  (     0         -1          0      )
                  (     0          0          1      )

 cart.    s( 5) = (  0.5000000  0.8660254  0.0000000 )
                  (  0.8660254 -0.5000000  0.0000000 )
                  (  0.0000000  0.0000000  1.0000000 )


      isym =  6     inv. 180 deg rotation - cryst. axis [1,1,0]  

 cryst.   s( 6) = (     0         -1          0      )
                  (    -1          0          0      )
                  (     0          0          1      )

 cart.    s( 6) = (  0.5000000 -0.8660254  0.0000000 )
                  ( -0.8660254 -0.5000000  0.0000000 )
                  (  0.0000000  0.0000000  1.0000000 )


     point group C_3v (3m)  
     there are  3 classes
     the character table:

       E     2C3   3s_v 
A_1    1.00  1.00  1.00
A_2    1.00  1.00 -1.00
E      2.00 -1.00  0.00

     the symmetry operations in each class and the name of the first element:

     E        1
          identity                                               
     2C3      2    3
          120 deg rotation - cryst. axis [0,0,1]                 
     3s_v     4    5    6
          inv. 180 deg rotation - cart. axis [1,0,0]             

   Cartesian axes

     site n.     atom                  positions (alat units)
         1           S   tau(   1) = (   0.0000000   0.5773503   1.4932768  )
         2           Nb  tau(   2) = (   0.0000000   0.0000000   1.0094618  )
         3           S   tau(   3) = (   0.0000000   0.5773503   0.5321904  )
         4           S   tau(   4) = (   0.5000000   0.2886751   2.5511139  )
         5           Nb  tau(   5) = (   0.0000000   0.0000000   3.0283905  )
         6           S   tau(   6) = (   0.5000000   0.2886751   3.5056620  )

   Crystallographic axes

     site n.     atom                  positions (cryst. coord.)
         1           S   tau(   1) = (  0.3333333  0.6666667  0.2449870  )
         2           Nb  tau(   2) = (  0.0000000  0.0000000  0.1656123  )
         3           S   tau(   3) = (  0.3333333  0.6666667  0.0873112  )
         4           S   tau(   4) = (  0.6666667  0.3333333  0.4185358  )
         5           Nb  tau(   5) = (  0.0000000  0.0000000  0.4968378  )
         6           S   tau(   6) = (  0.6666667  0.3333333  0.5751389  )

     number of k points=     4  Methfessel-Paxton smearing, width (Ry)=  0.0200
                       cart. coord. in units 2pi/alat
        k(    1) = (   0.0000000   0.0000000   0.0000000), wk =   0.1250000
        k(    2) = (   0.0000000   0.2886751   0.0000000), wk =   0.7500000
        k(    3) = (   0.0000000  -0.5773503   0.0000000), wk =   0.3750000
        k(    4) = (   0.2500000   0.4330127   0.0000000), wk =   0.7500000

                       cryst. coord.
        k(    1) = (   0.0000000   0.0000000   0.0000000), wk =   0.1250000
        k(    2) = (   0.0000000   0.2500000   0.0000000), wk =   0.7500000
        k(    3) = (   0.0000000  -0.5000000   0.0000000), wk =   0.3750000
        k(    4) = (   0.2500000   0.2500000   0.0000000), wk =   0.7500000

     Dense  grid:   170041 G-vectors     FFT dimensions: (  40,  40, 243)

     Smooth grid:    79087 G-vectors     FFT dimensions: (  32,  32, 192)

     Dynamical RAM for                 wfc:       4.52 MB

     Dynamical RAM for     wfc (w. buffer):      22.60 MB

     Dynamical RAM for           str. fact:       2.59 MB

     Dynamical RAM for           local pot:       0.00 MB

     Dynamical RAM for          nlocal pot:       5.12 MB

     Dynamical RAM for                qrad:       3.21 MB

     Dynamical RAM for          rho,v,vnew:       8.36 MB

     Dynamical RAM for               rhoin:       2.79 MB

     Dynamical RAM for            rho*nmix:      20.76 MB

     Dynamical RAM for           G-vectors:       5.17 MB

     Dynamical RAM for          h,s,v(r/c):       0.66 MB

     Dynamical RAM for          <psi|beta>:       0.06 MB

     Dynamical RAM for                 psi:       9.04 MB

     Dynamical RAM for                hpsi:       9.04 MB

     Dynamical RAM for                spsi:       9.04 MB

     Dynamical RAM for      wfcinit/wfcrot:       9.12 MB

     Dynamical RAM for           addusdens:     246.48 MB

     Estimated static dynamical RAM per process >      81.94 MB

     Estimated max dynamical RAM per process >     328.43 MB

     Estimated total dynamical RAM >     656.85 MB

     Initial potential from superposition of free atoms

     starting charge   49.99775, renormalised to   50.00000

     negative rho (up, down):  7.872E-05 0.000E+00
     Starting wfcs are   42 randomized atomic wfcs +   18 random wfcs
     Checking if some PAW data can be deallocated... 

     total cpu time spent up to now is        4.9 secs

     Self-consistent Calculation

     iteration #  1     ecut=    60.00 Ry     beta= 0.70
     Davidson diagonalization with overlap
     ethr =  1.00E-02,  avg # of iterations =  8.2

     Threshold (ethr) on eigenvalues was too large:
     Diagonalizing with lowered threshold

     Davidson diagonalization with overlap
     ethr =  5.46E-04,  avg # of iterations =  2.0

     negative rho (up, down):  1.244E-04 0.000E+00

     total cpu time spent up to now is       29.6 secs

     total energy              =    -907.80295627 Ry
     estimated scf accuracy    <       0.27404562 Ry

     iteration #  2     ecut=    60.00 Ry     beta= 0.70
     Davidson diagonalization with overlap
     ethr =  5.48E-04,  avg # of iterations =  6.0

     negative rho (up, down):  1.322E-04 0.000E+00

     total cpu time spent up to now is       40.6 secs

     total energy              =    -907.52248744 Ry
     estimated scf accuracy    <       3.38083617 Ry

     iteration #  3     ecut=    60.00 Ry     beta= 0.70
     Davidson diagonalization with overlap
     ethr =  5.48E-04,  avg # of iterations =  8.2

     negative rho (up, down):  1.168E-04 0.000E+00

     total cpu time spent up to now is       51.6 secs

     total energy              =    -907.18714262 Ry
     estimated scf accuracy    <      21.17126026 Ry

     iteration #  4     ecut=    60.00 Ry     beta= 0.70
     Davidson diagonalization with overlap
     ethr =  5.48E-04,  avg # of iterations =  6.2

     negative rho (up, down):  1.176E-04 0.000E+00

     total cpu time spent up to now is       61.7 secs

     total energy              =    -907.88561688 Ry
     estimated scf accuracy    <       1.62123671 Ry

     iteration #  5     ecut=    60.00 Ry     beta= 0.70
     Davidson diagonalization with overlap
     ethr =  5.48E-04,  avg # of iterations =  1.5

     negative rho (up, down):  1.199E-04 0.000E+00

     total cpu time spent up to now is       69.9 secs

     total energy              =    -907.90201299 Ry
     estimated scf accuracy    <       0.11487280 Ry

     iteration #  6     ecut=    60.00 Ry     beta= 0.70
     Davidson diagonalization with overlap
     ethr =  2.30E-04,  avg # of iterations =  2.2

     negative rho (up, down):  1.223E-04 0.000E+00

     total cpu time spent up to now is       78.3 secs

     total energy              =    -907.90586191 Ry
     estimated scf accuracy    <       0.05525538 Ry

     iteration #  7     ecut=    60.00 Ry     beta= 0.70
     Davidson diagonalization with overlap
     ethr =  1.11E-04,  avg # of iterations =  3.2

     negative rho (up, down):  1.257E-04 0.000E+00

     total cpu time spent up to now is       87.0 secs

     total energy              =    -907.90586590 Ry
     estimated scf accuracy    <       0.03234164 Ry

     iteration #  8     ecut=    60.00 Ry     beta= 0.70
     Davidson diagonalization with overlap
     ethr =  6.47E-05,  avg # of iterations =  4.0

     negative rho (up, down):  1.271E-04 0.000E+00

     total cpu time spent up to now is       95.4 secs

     total energy              =    -907.90644892 Ry
     estimated scf accuracy    <       0.22333171 Ry

     iteration #  9     ecut=    60.00 Ry     beta= 0.70
     Davidson diagonalization with overlap
     ethr =  6.47E-05,  avg # of iterations =  1.0

     negative rho (up, down):  1.298E-04 0.000E+00

     total cpu time spent up to now is      103.1 secs

     total energy              =    -907.90906226 Ry
     estimated scf accuracy    <       0.02985723 Ry

     iteration # 10     ecut=    60.00 Ry     beta= 0.70
     Davidson diagonalization with overlap
     ethr =  5.97E-05,  avg # of iterations =  1.0

     negative rho (up, down):  1.294E-04 0.000E+00

     total cpu time spent up to now is      110.8 secs

     total energy              =    -907.90781800 Ry
     estimated scf accuracy    <       0.06539740 Ry

     iteration # 11     ecut=    60.00 Ry     beta= 0.70
     Davidson diagonalization with overlap
     ethr =  5.97E-05,  avg # of iterations =  1.0

     negative rho (up, down):  1.302E-04 0.000E+00

     total cpu time spent up to now is      118.4 secs

     total energy              =    -907.90854935 Ry
     estimated scf accuracy    <       0.04662235 Ry

     iteration # 12     ecut=    60.00 Ry     beta= 0.70
     Davidson diagonalization with overlap
     ethr =  5.97E-05,  avg # of iterations =  1.0

     negative rho (up, down):  1.302E-04 0.000E+00

     total cpu time spent up to now is      126.1 secs

     total energy              =    -907.90887423 Ry
     estimated scf accuracy    <       0.00028497 Ry

     iteration # 13     ecut=    60.00 Ry     beta= 0.70
     Davidson diagonalization with overlap
     ethr =  5.70E-07,  avg # of iterations =  7.5

     negative rho (up, down):  1.303E-04 0.000E+00

     total cpu time spent up to now is      135.4 secs

     total energy              =    -907.90887621 Ry
     estimated scf accuracy    <       0.00000032 Ry

     iteration # 14     ecut=    60.00 Ry     beta= 0.70
     Davidson diagonalization with overlap
     ethr =  6.43E-10,  avg # of iterations =  1.5

     negative rho (up, down):  1.303E-04 0.000E+00

     total cpu time spent up to now is      143.5 secs

     End of self-consistent calculation

          k = 0.0000 0.0000 0.0000 (  9951 PWs)   bands (ev):

   -51.4682 -51.4573 -27.6539 -27.6531 -27.4445 -27.4445 -27.4363 -27.4363
   -10.3649 -10.2975  -9.0685  -8.9696  -2.1274  -1.8225   0.9520   0.9520
     1.0051   1.0051   1.3868   2.0658   2.0658   2.1101   2.1101   2.1233
     3.8429   4.2746   6.3161   6.3161   6.3592   6.3592   6.4935   6.4935
     6.5225   6.5225   8.5426   8.7097   9.0095   9.6176  11.3516  11.5647
    11.6166  11.9745  13.8429  13.8429  13.8693  13.8693  14.0298  15.7578
    15.7897  15.7897  16.0380  16.0380  16.1209  17.1088  18.0439  18.5125
    18.6565  18.6565  18.7877  19.1660

     occupation numbers 
     1.0000   1.0000   1.0000   1.0000   1.0000   1.0000   1.0000   1.0000
     1.0000   1.0000   1.0000   1.0000   1.0000   1.0000   1.0000   1.0000
     1.0000   1.0000   1.0000   1.0000   1.0000   1.0000   1.0000   1.0000
    -0.0019  -0.0000  -0.0000  -0.0000  -0.0000  -0.0000  -0.0000  -0.0000
    -0.0000  -0.0000  -0.0000  -0.0000  -0.0000  -0.0000  -0.0000  -0.0000
    -0.0000  -0.0000  -0.0000  -0.0000  -0.0000  -0.0000  -0.0000  -0.0000
    -0.0000  -0.0000  -0.0000  -0.0000  -0.0000  -0.0000  -0.0000  -0.0000
    -0.0000  -0.0000  -0.0000  -0.0000

          k = 0.0000 0.2887 0.0000 (  9891 PWs)   bands (ev):

   -51.4455 -51.4346 -27.6725 -27.6662 -27.6050 -27.6037 -27.4954 -27.4875
    -9.6080  -9.5474  -8.8197  -8.7482  -1.4747  -1.2408  -0.3344  -0.2913
    -0.0027   0.1865   1.1036   1.1474   1.6738   1.7259   1.9576   2.3177
     3.1127   3.1985   5.8335   6.0827   6.1351   6.2255   6.5786   6.8145
     7.4579   7.5211   9.8957  10.3662  10.8634  11.5542  11.8400  12.3036
    12.4017  12.5026  12.9475  13.1208  14.2697  14.8063  14.9592  15.2072
    15.5314  15.6866  15.8533  16.1244  16.5245  16.5634  16.6829  17.1138
    17.3762  17.6328  17.9700  19.0843

     occupation numbers 
     1.0000   1.0000   1.0000   1.0000   1.0000   1.0000   1.0000   1.0000
     1.0000   1.0000   1.0000   1.0000   1.0000   1.0000   1.0000   1.0000
     1.0000   1.0000   1.0000   1.0000   1.0000   1.0000   1.0000   1.0000
     0.7354   0.4795  -0.0000  -0.0000  -0.0000  -0.0000  -0.0000  -0.0000
    -0.0000  -0.0000  -0.0000  -0.0000  -0.0000  -0.0000  -0.0000  -0.0000
    -0.0000  -0.0000  -0.0000  -0.0000  -0.0000  -0.0000  -0.0000  -0.0000
    -0.0000  -0.0000  -0.0000  -0.0000  -0.0000  -0.0000  -0.0000  -0.0000
    -0.0000  -0.0000  -0.0000  -0.0000

          k = 0.0000-0.5774 0.0000 (  9862 PWs)   bands (ev):

   -51.4228 -51.4117 -27.8918 -27.8872 -27.5557 -27.5538 -27.5458 -27.5382
    -8.6889  -8.6524  -8.5243  -8.4939  -2.0860  -2.0438  -1.1244  -0.9992
    -0.4304  -0.4015   0.4424   0.4894   1.5420   1.8844   2.2987   2.3523
     3.0240   3.1345   6.3729   6.3839   6.7948   6.8154   7.2727   7.5815
     8.0637   8.1857   9.2684   9.7980  11.0323  11.0716  11.4756  11.5646
    12.5110  12.5692  13.1715  13.3915  13.9256  13.9273  14.0482  14.3039
    15.0081  15.0522  16.4048  16.8459  17.6588  17.7149  17.8815  18.6473
    18.8146  19.0691  19.7154  20.0954

     occupation numbers 
     1.0000   1.0000   1.0000   1.0000   1.0000   1.0000   1.0000   1.0000
     1.0000   1.0000   1.0000   1.0000   1.0000   1.0000   1.0000   1.0000
     1.0000   1.0000   1.0000   1.0000   1.0000   1.0000   1.0000   1.0001
     0.9276   0.6744  -0.0000  -0.0000  -0.0000  -0.0000  -0.0000  -0.0000
    -0.0000  -0.0000  -0.0000  -0.0000  -0.0000  -0.0000  -0.0000  -0.0000
    -0.0000  -0.0000  -0.0000  -0.0000  -0.0000  -0.0000  -0.0000  -0.0000
    -0.0000  -0.0000  -0.0000  -0.0000  -0.0000  -0.0000  -0.0000  -0.0000
    -0.0000  -0.0000  -0.0000  -0.0000

          k = 0.2500 0.4330 0.0000 (  9866 PWs)   bands (ev):

   -51.4228 -51.4117 -27.8103 -27.8051 -27.6313 -27.6243 -27.5558 -27.5539
    -8.7067  -8.6657  -8.5041  -8.4703  -1.4652  -1.3848  -1.2432  -1.2080
    -0.1543  -0.0592   0.3603   0.5162   0.6673   0.6872   1.8395   1.9668
     3.2385   3.2608   5.9677   6.1725   6.7972   6.9009   7.0035   7.1208
     8.3419   8.3854  10.6740  10.8415  11.5406  11.5921  11.7512  12.6185
    12.8420  12.9138  13.0653  13.9547  14.3226  14.4320  14.7253  15.2388
    15.2619  15.3453  15.3948  15.6271  16.1083  16.7035  16.7090  17.3259
    17.4509  17.8618  18.0575  18.8085

     occupation numbers 
     1.0000   1.0000   1.0000   1.0000   1.0000   1.0000   1.0000   1.0000
     1.0000   1.0000   1.0000   1.0000   1.0000   1.0000   1.0000   1.0000
     1.0000   1.0000   1.0000   1.0000   1.0000   1.0000   1.0000   1.0000
     0.3577   0.2934  -0.0000  -0.0000  -0.0000  -0.0000  -0.0000  -0.0000
    -0.0000  -0.0000  -0.0000  -0.0000  -0.0000  -0.0000  -0.0000  -0.0000
    -0.0000  -0.0000  -0.0000  -0.0000  -0.0000  -0.0000  -0.0000  -0.0000
    -0.0000  -0.0000  -0.0000  -0.0000  -0.0000  -0.0000  -0.0000  -0.0000
    -0.0000  -0.0000  -0.0000  -0.0000

     the Fermi energy is     3.1919 ev

!    total energy              =    -907.90887622 Ry

     total all-electron energy =    -18448.317898 Ry
     estimated scf accuracy    <          4.1E-09 Ry
     smearing contrib. (-TS)   =      -0.00846934 Ry
     internal energy E=F+TS    =    -907.90040688 Ry

     The total energy is F=E-TS. E is the sum of the following terms:
     one-electron contribution =   -1048.04933716 Ry
     hartree contribution      =     537.54369618 Ry
     xc contribution           =     -65.32817491 Ry
     ewald contribution        =     256.18108273 Ry
     one-center paw contrib.   =    -588.24767371 Ry
      -> PAW hartree energy AE =      99.60160465 Ry
      -> PAW hartree energy PS =     -99.08692456 Ry
      -> PAW xc energy AE      =    -324.65540238 Ry
      -> PAW xc energy PS      =      30.01770642 Ry
      -> total E_H with PAW    =     538.05837627 Ry
      -> total E_XC with PAW   =    -359.96587088 Ry

     convergence has been achieved in  14 iterations

     Writing output data file ./tmp/NbS2_bi.save/

     init_run     :      3.79s CPU      3.91s WALL (       1 calls)
     electrons    :    134.42s CPU    138.58s WALL (       1 calls)

     Called by init_run:
     wfcinit      :      2.35s CPU      2.37s WALL (       1 calls)
     wfcinit:atom :      0.01s CPU      0.01s WALL (       4 calls)
     wfcinit:wfcr :      2.30s CPU      2.32s WALL (       4 calls)
     potinit      :      0.34s CPU      0.35s WALL (       1 calls)
     hinit0       :      0.63s CPU      0.63s WALL (       1 calls)

     Called by electrons:
     c_bands      :    103.94s CPU    104.80s WALL (      15 calls)
     sum_band     :     22.76s CPU     24.65s WALL (      15 calls)
     v_of_rho     :      0.48s CPU      0.49s WALL (      15 calls)
     v_h          :      0.26s CPU      0.27s WALL (      15 calls)
     v_xc         :      0.22s CPU      0.22s WALL (      15 calls)
     newd         :      5.87s CPU      7.29s WALL (      15 calls)
     PAW_pot      :      0.88s CPU      0.88s WALL (      15 calls)
     mix_rho      :      0.63s CPU      0.64s WALL (      15 calls)

     Called by c_bands:
     init_us_2    :      0.36s CPU      0.36s WALL (     124 calls)
     cegterg      :    102.92s CPU    103.76s WALL (      60 calls)

     Called by sum_band:
     sum_band:wei :      0.00s CPU      0.01s WALL (      15 calls)
     sum_band:loo :     14.19s CPU     14.36s WALL (      15 calls)
     sum_band:buf :      0.14s CPU      0.15s WALL (      60 calls)
     sum_band:ini :      0.17s CPU      0.17s WALL (      60 calls)
     sum_band:cal :      2.94s CPU      2.94s WALL (      60 calls)
     sum_band:bec :      0.01s CPU      0.01s WALL (      60 calls)
     addusdens    :      8.15s CPU      9.83s WALL (      15 calls)
     addusd:skk   :      0.04s CPU      0.04s WALL (      30 calls)
     addusd:dgemm :      3.25s CPU      4.70s WALL (      30 calls)
     addusd:qvan2 :      4.41s CPU      4.41s WALL (      30 calls)

     Called by *egterg:
     cdiaghg      :      1.60s CPU      1.61s WALL (     275 calls)
     cegterg:over :     12.13s CPU     12.14s WALL (     219 calls)
     cegterg:upda :      6.76s CPU      6.77s WALL (     219 calls)
     cegterg:last :     15.99s CPU     16.01s WALL (     105 calls)
     h_psi        :     55.60s CPU     56.33s WALL (     283 calls)
     s_psi        :      6.52s CPU      6.55s WALL (     283 calls)
     g_psi        :      0.12s CPU      0.12s WALL (     219 calls)

     Called by h_psi:
     h_psi:calbec :      7.06s CPU      7.08s WALL (     283 calls)
     vloc_psi     :     41.70s CPU     42.39s WALL (     283 calls)
     add_vuspsi   :      6.52s CPU      6.52s WALL (     283 calls)

     General routines
     calbec       :     10.00s CPU     10.02s WALL (     343 calls)
     fft          :      1.20s CPU      1.23s WALL (      89 calls)
     ffts         :      0.13s CPU      0.13s WALL (      30 calls)
     fftw         :     41.75s CPU     42.45s WALL (   20636 calls)
     interpolate  :      0.29s CPU      0.31s WALL (      15 calls)

     Parallel routines
     fft_scatt_xy :      7.72s CPU      7.84s WALL (   20755 calls)
     fft_scatt_yz :      4.05s CPU      4.20s WALL (   20755 calls)

     PAW routines
     PAW_pot      :      0.88s CPU      0.88s WALL (      15 calls)
     PAW_symme    :      0.00s CPU      0.00s WALL (      30 calls)

     PWSCF        :   2m19.27s CPU   2m23.86s WALL


   This run was terminated on:  16: 2:19  14Jun2021            

=------------------------------------------------------------------------------=
   JOB DONE.
=------------------------------------------------------------------------------=
