
     Program PWSCF v.6.6 starts on 14Jun2021 at 15:51:27 

     This program is part of the open-source Quantum ESPRESSO suite
     for quantum simulation of materials; please cite
         "P. Giannozzi et al., J. Phys.:Condens. Matter 21 395502 (2009);
         "P. Giannozzi et al., J. Phys.:Condens. Matter 29 465901 (2017);
          URL http://www.quantum-espresso.org", 
     in publications or presentations arising from this work. More details at
     http://www.quantum-espresso.org/quote

     Parallel version (MPI), running on     2 processors

     MPI processes distributed on     1 nodes
     R & G space division:  proc/nbgrp/npool/nimage =       2
     Fft bands division:     nmany     =       1
     Waiting for input...
     Reading input from standard input

     Current dimensions of program PWSCF are:
     Max number of different atomic species (ntypx) = 10
     Max number of k-points (npk) =  40000
     Max angular momentum in pseudopotentials (lmaxx) =  3
     file Nb.pz-spn-kjpaw_psl.1.0.0.UPF: wavefunction(s)  4S 4P 4D renormalized
     file S.pz-n-kjpaw_psl.0.1.UPF: wavefunction(s)  3P renormalized

     Subspace diagonalization in iterative solution of the eigenvalue problem:
     a serial algorithm will be used


     Parallelization info
     --------------------
     sticks:   dense  smooth     PW     G-vecs:    dense   smooth      PW
     Min         534      81     27                85019     4974     953
     Max         535      82     28                85022     4977     966
     Sum        1069     163     55               170041     9951    1919



     bravais-lattice index     =            4
     lattice parameter (alat)  =       6.2006  a.u.
     unit-cell volume          =    1258.4114 (a.u.)^3
     number of atoms/cell      =            6
     number of atomic types    =            2
     number of electrons       =        50.00
     number of Kohn-Sham states=           60
     kinetic-energy cutoff     =      15.0000  Ry
     charge density cutoff     =     400.0000  Ry
     convergence threshold     =      1.0E-08
     mixing beta               =       0.7000
     number of iterations used =            8  plain     mixing
     Exchange-correlation= SLA PZ NOGX NOGC
                           (   1   1   0   0   0   0   0)

     celldm(1)=   6.200569  celldm(2)=   0.000000  celldm(3)=   6.095331
     celldm(4)=   0.000000  celldm(5)=   0.000000  celldm(6)=   0.000000

     crystal axes: (cart. coord. in units of alat)
               a(1) = (   1.000000   0.000000   0.000000 )  
               a(2) = (  -0.500000   0.866025   0.000000 )  
               a(3) = (   0.000000   0.000000   6.095331 )  

     reciprocal axes: (cart. coord. in units 2 pi/alat)
               b(1) = (  1.000000  0.577350 -0.000000 )  
               b(2) = (  0.000000  1.154701  0.000000 )  
               b(3) = (  0.000000 -0.000000  0.164060 )  


     PseudoPot. # 1 for Nb read from file:
     ../Nb.pz-spn-kjpaw_psl.1.0.0.UPF
     MD5 check sum: 38c2e04b3cc915696ca8dc9f46a23270
     Pseudo is Projector augmented-wave + core cor, Zval = 13.0
     Generated using "atomic" code by A. Dal Corso v.6.2.2
     Shape of augmentation charge: PSQ
     Using radial grid of 1227 points,  6 beta functions with: 
                l(1) =   0
                l(2) =   0
                l(3) =   1
                l(4) =   1
                l(5) =   2
                l(6) =   2
     Q(r) pseudized with 0 coefficients 


     PseudoPot. # 2 for S  read from file:
     ../S.pz-n-kjpaw_psl.0.1.UPF
     MD5 check sum: c0b1682311cf098e03f7841691d9a679
     Pseudo is Projector augmented-wave + core cor, Zval =  6.0
     Generated using "atomic" code by A. Dal Corso v.5.0.2 svn rev. 9415
     Shape of augmentation charge: PSQ
     Using radial grid of 1151 points,  4 beta functions with: 
                l(1) =   0
                l(2) =   0
                l(3) =   1
                l(4) =   1
     Q(r) pseudized with 0 coefficients 


     atomic species   valence    mass     pseudopotential
        Nb            13.00    92.90600     Nb( 1.00)
        S              6.00    32.06500     S ( 1.00)

      6 Sym. Ops. (no inversion) found


                                    s                        frac. trans.

      isym =  1     identity                                     

 cryst.   s( 1) = (     1          0          0      )
                  (     0          1          0      )
                  (     0          0          1      )

 cart.    s( 1) = (  1.0000000  0.0000000  0.0000000 )
                  (  0.0000000  1.0000000  0.0000000 )
                  (  0.0000000  0.0000000  1.0000000 )


      isym =  2     120 deg rotation - cryst. axis [0,0,1]       

 cryst.   s( 2) = (     0          1          0      )
                  (    -1         -1          0      )
                  (     0          0          1      )

 cart.    s( 2) = ( -0.5000000 -0.8660254  0.0000000 )
                  (  0.8660254 -0.5000000  0.0000000 )
                  (  0.0000000  0.0000000  1.0000000 )


      isym =  3     120 deg rotation - cryst. axis [0,0,-1]      

 cryst.   s( 3) = (    -1         -1          0      )
                  (     1          0          0      )
                  (     0          0          1      )

 cart.    s( 3) = ( -0.5000000  0.8660254  0.0000000 )
                  ( -0.8660254 -0.5000000  0.0000000 )
                  (  0.0000000  0.0000000  1.0000000 )


      isym =  4     inv. 180 deg rotation - cart. axis [1,0,0]   

 cryst.   s( 4) = (    -1          0          0      )
                  (     1          1          0      )
                  (     0          0          1      )

 cart.    s( 4) = ( -1.0000000  0.0000000  0.0000000 )
                  (  0.0000000  1.0000000  0.0000000 )
                  (  0.0000000  0.0000000  1.0000000 )


      isym =  5     inv. 180 deg rotation - cryst. axis [0,1,0]  

 cryst.   s( 5) = (     1          1          0      )
                  (     0         -1          0      )
                  (     0          0          1      )

 cart.    s( 5) = (  0.5000000  0.8660254  0.0000000 )
                  (  0.8660254 -0.5000000  0.0000000 )
                  (  0.0000000  0.0000000  1.0000000 )


      isym =  6     inv. 180 deg rotation - cryst. axis [1,1,0]  

 cryst.   s( 6) = (     0         -1          0      )
                  (    -1          0          0      )
                  (     0          0          1      )

 cart.    s( 6) = (  0.5000000 -0.8660254  0.0000000 )
                  ( -0.8660254 -0.5000000  0.0000000 )
                  (  0.0000000  0.0000000  1.0000000 )


     point group C_3v (3m)  
     there are  3 classes
     the character table:

       E     2C3   3s_v 
A_1    1.00  1.00  1.00
A_2    1.00  1.00 -1.00
E      2.00 -1.00  0.00

     the symmetry operations in each class and the name of the first element:

     E        1
          identity                                               
     2C3      2    3
          120 deg rotation - cryst. axis [0,0,1]                 
     3s_v     4    5    6
          inv. 180 deg rotation - cart. axis [1,0,0]             

   Cartesian axes

     site n.     atom                  positions (alat units)
         1           S   tau(   1) = (   0.0000000   0.5773503   1.4932768  )
         2           Nb  tau(   2) = (   0.0000000   0.0000000   1.0094618  )
         3           S   tau(   3) = (   0.0000000   0.5773503   0.5321904  )
         4           S   tau(   4) = (   0.5000000   0.2886751   2.5511139  )
         5           Nb  tau(   5) = (   0.0000000   0.0000000   3.0283905  )
         6           S   tau(   6) = (   0.5000000   0.2886751   3.5056620  )

   Crystallographic axes

     site n.     atom                  positions (cryst. coord.)
         1           S   tau(   1) = (  0.3333333  0.6666667  0.2449870  )
         2           Nb  tau(   2) = (  0.0000000  0.0000000  0.1656123  )
         3           S   tau(   3) = (  0.3333333  0.6666667  0.0873112  )
         4           S   tau(   4) = (  0.6666667  0.3333333  0.4185358  )
         5           Nb  tau(   5) = (  0.0000000  0.0000000  0.4968378  )
         6           S   tau(   6) = (  0.6666667  0.3333333  0.5751389  )

     number of k points=     4  Methfessel-Paxton smearing, width (Ry)=  0.0200
                       cart. coord. in units 2pi/alat
        k(    1) = (   0.0000000   0.0000000   0.0000000), wk =   0.1250000
        k(    2) = (   0.0000000   0.2886751   0.0000000), wk =   0.7500000
        k(    3) = (   0.0000000  -0.5773503   0.0000000), wk =   0.3750000
        k(    4) = (   0.2500000   0.4330127   0.0000000), wk =   0.7500000

                       cryst. coord.
        k(    1) = (   0.0000000   0.0000000   0.0000000), wk =   0.1250000
        k(    2) = (   0.0000000   0.2500000   0.0000000), wk =   0.7500000
        k(    3) = (   0.0000000  -0.5000000   0.0000000), wk =   0.3750000
        k(    4) = (   0.2500000   0.2500000   0.0000000), wk =   0.7500000

     Dense  grid:   170041 G-vectors     FFT dimensions: (  40,  40, 243)

     Smooth grid:     9951 G-vectors     FFT dimensions: (  15,  15,  96)

     Dynamical RAM for                 wfc:       0.56 MB

     Dynamical RAM for     wfc (w. buffer):       2.82 MB

     Dynamical RAM for           str. fact:       2.59 MB

     Dynamical RAM for           local pot:       0.00 MB

     Dynamical RAM for          nlocal pot:       0.64 MB

     Dynamical RAM for                qrad:       3.21 MB

     Dynamical RAM for          rho,v,vnew:       8.36 MB

     Dynamical RAM for               rhoin:       2.79 MB

     Dynamical RAM for            rho*nmix:      20.76 MB

     Dynamical RAM for           G-vectors:       4.90 MB

     Dynamical RAM for          h,s,v(r/c):       0.66 MB

     Dynamical RAM for          <psi|beta>:       0.06 MB

     Dynamical RAM for                 psi:       1.13 MB

     Dynamical RAM for                hpsi:       1.13 MB

     Dynamical RAM for                spsi:       1.13 MB

     Dynamical RAM for      wfcinit/wfcrot:       1.21 MB

     Dynamical RAM for           addusdens:     246.48 MB

     Estimated static dynamical RAM per process >      57.41 MB

     Estimated max dynamical RAM per process >     303.90 MB

     Estimated total dynamical RAM >     607.80 MB

     Initial potential from superposition of free atoms

     starting charge   49.99775, renormalised to   50.00000

     negative rho (up, down):  7.872E-05 0.000E+00
     Starting wfcs are   42 randomized atomic wfcs +   18 random wfcs
     Checking if some PAW data can be deallocated... 

     total cpu time spent up to now is        2.7 secs

     Self-consistent Calculation

     iteration #  1     ecut=    15.00 Ry     beta= 0.70
     Davidson diagonalization with overlap
     ethr =  1.00E-02,  avg # of iterations =  7.5

     negative rho (up, down):  2.997E-06 0.000E+00

     total cpu time spent up to now is        5.3 secs

     total energy              =    -904.44295897 Ry
     estimated scf accuracy    <       1.16215349 Ry

     iteration #  2     ecut=    15.00 Ry     beta= 0.70
     Davidson diagonalization with overlap
     ethr =  2.32E-03,  avg # of iterations =  2.8

     negative rho (up, down):  3.463E-02 0.000E+00

     total cpu time spent up to now is        7.2 secs

     total energy              =    -903.59342777 Ry
     estimated scf accuracy    <       7.16138917 Ry

     iteration #  3     ecut=    15.00 Ry     beta= 0.70
     Davidson diagonalization with overlap
     ethr =  2.32E-03,  avg # of iterations =  5.5

     negative rho (up, down):  5.759E-02 0.000E+00

     total cpu time spent up to now is        9.3 secs

     total energy              =    -901.29341918 Ry
     estimated scf accuracy    <     139.23187763 Ry

     iteration #  4     ecut=    15.00 Ry     beta= 0.70
     Davidson diagonalization with overlap
     ethr =  2.32E-03,  avg # of iterations =  4.8

     negative rho (up, down):  3.150E-03 0.000E+00

     total cpu time spent up to now is       11.3 secs

     total energy              =    -904.82993204 Ry
     estimated scf accuracy    <       3.27761634 Ry

     iteration #  5     ecut=    15.00 Ry     beta= 0.70
     Davidson diagonalization with overlap
     ethr =  2.32E-03,  avg # of iterations =  2.2

     negative rho (up, down):  4.376E-03 0.000E+00

     total cpu time spent up to now is       13.2 secs

     total energy              =    -904.89350890 Ry
     estimated scf accuracy    <       0.61115742 Ry

     iteration #  6     ecut=    15.00 Ry     beta= 0.70
     Davidson diagonalization with overlap
     ethr =  1.22E-03,  avg # of iterations =  1.5

     negative rho (up, down):  2.215E-03 0.000E+00

     total cpu time spent up to now is       15.0 secs

     total energy              =    -904.92658373 Ry
     estimated scf accuracy    <       0.93823809 Ry

     iteration #  7     ecut=    15.00 Ry     beta= 0.70
     Davidson diagonalization with overlap
     ethr =  1.22E-03,  avg # of iterations =  1.0

     negative rho (up, down):  8.378E-04 0.000E+00

     total cpu time spent up to now is       16.8 secs

     total energy              =    -904.94159681 Ry
     estimated scf accuracy    <       0.07383858 Ry

     iteration #  8     ecut=    15.00 Ry     beta= 0.70
     Davidson diagonalization with overlap
     ethr =  1.48E-04,  avg # of iterations =  3.2

     negative rho (up, down):  5.077E-04 0.000E+00

     total cpu time spent up to now is       18.7 secs

     total energy              =    -904.94176004 Ry
     estimated scf accuracy    <       0.00849018 Ry

     iteration #  9     ecut=    15.00 Ry     beta= 0.70
     Davidson diagonalization with overlap
     ethr =  1.70E-05,  avg # of iterations =  8.2

     negative rho (up, down):  3.094E-04 0.000E+00

     total cpu time spent up to now is       20.7 secs

     total energy              =    -904.94089201 Ry
     estimated scf accuracy    <       0.02258732 Ry

     iteration # 10     ecut=    15.00 Ry     beta= 0.70
     Davidson diagonalization with overlap
     ethr =  1.70E-05,  avg # of iterations =  1.0

     negative rho (up, down):  5.749E-05 0.000E+00

     total cpu time spent up to now is       22.5 secs

     total energy              =    -904.94138262 Ry
     estimated scf accuracy    <       0.02585577 Ry

     iteration # 11     ecut=    15.00 Ry     beta= 0.70
     Davidson diagonalization with overlap
     ethr =  1.70E-05,  avg # of iterations =  1.0

     negative rho (up, down):  9.712E-06 0.000E+00

     total cpu time spent up to now is       24.3 secs

     total energy              =    -904.94171605 Ry
     estimated scf accuracy    <       0.01068657 Ry

     iteration # 12     ecut=    15.00 Ry     beta= 0.70
     Davidson diagonalization with overlap
     ethr =  1.70E-05,  avg # of iterations =  1.0

     negative rho (up, down):  7.052E-07 0.000E+00

     total cpu time spent up to now is       26.1 secs

     total energy              =    -904.94178546 Ry
     estimated scf accuracy    <       0.00005170 Ry

     iteration # 13     ecut=    15.00 Ry     beta= 0.70
     Davidson diagonalization with overlap
     ethr =  1.03E-07,  avg # of iterations =  4.5

     negative rho (up, down):  2.608E-07 0.000E+00

     total cpu time spent up to now is       28.0 secs

     total energy              =    -904.94178667 Ry
     estimated scf accuracy    <       0.00000063 Ry

     iteration # 14     ecut=    15.00 Ry     beta= 0.70
     Davidson diagonalization with overlap
     ethr =  1.26E-09,  avg # of iterations =  1.8

     negative rho (up, down):  2.322E-07 0.000E+00

     total cpu time spent up to now is       29.9 secs

     total energy              =    -904.94178674 Ry
     estimated scf accuracy    <       0.00000028 Ry

     iteration # 15     ecut=    15.00 Ry     beta= 0.70
     Davidson diagonalization with overlap
     ethr =  5.53E-10,  avg # of iterations =  1.0

     negative rho (up, down):  2.286E-07 0.000E+00

     total cpu time spent up to now is       31.7 secs

     End of self-consistent calculation

          k = 0.0000 0.0000 0.0000 (  1211 PWs)   bands (ev):

   -55.3067 -55.2938 -29.1331 -28.9240 -28.9240 -28.9214 -28.7953 -28.7953
   -10.4137 -10.3491  -8.9948  -8.9104  -2.1793  -1.8590   1.0823   1.0823
     1.1513   1.1513   1.4875   2.2181   2.2787   2.2787   2.3630   2.3630
     4.1304   4.6333   6.7202   6.7202   6.8319   6.8319   6.8754   6.8754
     6.8840   6.8840   8.4688   8.6023   9.0328   9.7504  11.5228  11.7094
    11.8679  12.2429  14.1707  14.4170  14.4170  14.4482  14.4482  16.2774
    16.5921  16.5921  16.6440  16.8706  16.8706  17.2652  18.1266  18.5196
    18.7905  19.5493  19.5493  20.2192

     occupation numbers 
     1.0000   1.0000   1.0000   1.0000   1.0000   1.0000   1.0000   1.0000
     1.0000   1.0000   1.0000   1.0000   1.0000   1.0000   1.0000   1.0000
     1.0000   1.0000   1.0000   1.0000   1.0000   1.0000   1.0000   1.0000
    -0.0006  -0.0000  -0.0000  -0.0000  -0.0000  -0.0000  -0.0000  -0.0000
    -0.0000  -0.0000  -0.0000  -0.0000  -0.0000  -0.0000  -0.0000  -0.0000
    -0.0000  -0.0000  -0.0000  -0.0000  -0.0000  -0.0000  -0.0000  -0.0000
    -0.0000  -0.0000  -0.0000  -0.0000  -0.0000  -0.0000  -0.0000  -0.0000
    -0.0000  -0.0000  -0.0000  -0.0000

          k = 0.0000 0.2887 0.0000 (  1223 PWs)   bands (ev):

   -55.2952 -55.2828 -29.0463 -29.0172 -28.9835 -28.9776 -28.9625 -28.9223
    -9.6233  -9.5639  -8.7547  -8.6877  -1.4449  -1.1900  -0.3762  -0.3350
     0.1226   0.3134   1.2518   1.3149   1.7617   1.8149   2.0665   2.4289
     3.3633   3.4517   6.2892   6.5138   6.5534   6.7331   7.0887   7.3135
     7.9840   8.0770  10.0045  10.5369  10.9687  11.6725  12.1194  12.5737
    12.7976  12.8702  13.2794  13.5676  14.6214  15.1993  15.5496  15.5972
    16.1944  16.2714  16.4645  16.7555  17.1133  17.2042  17.2838  17.7767
    17.9157  18.5015  18.5355  19.2836

     occupation numbers 
     1.0000   1.0000   1.0000   1.0000   1.0000   1.0000   1.0000   1.0000
     1.0000   1.0000   1.0000   1.0000   1.0000   1.0000   1.0000   1.0000
     1.0000   1.0000   1.0000   1.0000   1.0000   1.0000   1.0000   1.0000
     0.6595   0.3889  -0.0000  -0.0000  -0.0000  -0.0000  -0.0000  -0.0000
    -0.0000  -0.0000  -0.0000  -0.0000  -0.0000  -0.0000  -0.0000  -0.0000
    -0.0000  -0.0000  -0.0000  -0.0000  -0.0000  -0.0000  -0.0000  -0.0000
    -0.0000  -0.0000  -0.0000  -0.0000  -0.0000  -0.0000  -0.0000  -0.0000
    -0.0000  -0.0000  -0.0000  -0.0000

          k = 0.0000-0.5774 0.0000 (  1250 PWs)   bands (ev):

   -55.2856 -55.2728 -29.4590 -29.3733 -29.0515 -28.9783 -28.9744 -28.9302
    -8.6751  -8.6368  -8.4688  -8.4351  -2.1525  -2.1125  -1.0348  -0.9225
    -0.3247  -0.3006   0.5792   0.6240   1.7046   2.0467   2.3849   2.4390
     3.1552   3.2755   6.7622   6.9607   7.2069   7.2900   7.6694   7.9808
     8.7463   8.8029   9.4155   9.8806  11.3171  11.3546  11.8219  12.0206
    12.9219  12.9355  13.4834  13.7538  14.2092  14.2518  14.2798  14.6762
    15.2267  15.3043  16.8107  17.0904  17.8422  18.0133  18.5575  19.1577
    19.4588  19.6665  20.3090  20.4715

     occupation numbers 
     1.0000   1.0000   1.0000   1.0000   1.0000   1.0000   1.0000   1.0000
     1.0000   1.0000   1.0000   1.0000   1.0000   1.0000   1.0000   1.0000
     1.0000   1.0000   1.0000   1.0000   1.0000   1.0000   1.0000   1.0000
     1.0201   0.8782  -0.0000  -0.0000  -0.0000  -0.0000  -0.0000  -0.0000
    -0.0000  -0.0000  -0.0000  -0.0000  -0.0000  -0.0000  -0.0000  -0.0000
    -0.0000  -0.0000  -0.0000  -0.0000  -0.0000  -0.0000  -0.0000  -0.0000
    -0.0000  -0.0000  -0.0000  -0.0000  -0.0000  -0.0000  -0.0000  -0.0000
    -0.0000  -0.0000  -0.0000  -0.0000

          k = 0.2500 0.4330 0.0000 (  1242 PWs)   bands (ev):

   -55.2845 -55.2721 -29.2572 -29.2500 -29.0823 -28.9882 -28.9865 -28.9758
    -8.6964  -8.6555  -8.4518  -8.4123  -1.4711  -1.4055  -1.1576  -1.1222
    -0.1362  -0.0275   0.4737   0.6159   0.7012   0.7254   1.9659   2.1177
     3.4561   3.4843   6.4151   6.6636   7.3089   7.4271   7.5750   7.7044
     8.8945   8.9416  10.9160  11.2031  11.7752  11.9010  12.0590  12.8256
    13.0630  13.2284  13.4086  14.1474  14.7850  14.8766  15.3592  15.4874
    15.7342  15.8684  15.9819  16.1654  16.4931  17.0282  17.0459  17.6270
    17.8662  18.1251  18.3724  19.2390

     occupation numbers 
     1.0000   1.0000   1.0000   1.0000   1.0000   1.0000   1.0000   1.0000
     1.0000   1.0000   1.0000   1.0000   1.0000   1.0000   1.0000   1.0000
     1.0000   1.0000   1.0000   1.0000   1.0000   1.0000   1.0000   1.0000
     0.3756   0.2936  -0.0000  -0.0000  -0.0000  -0.0000  -0.0000  -0.0000
    -0.0000  -0.0000  -0.0000  -0.0000  -0.0000  -0.0000  -0.0000  -0.0000
    -0.0000  -0.0000  -0.0000  -0.0000  -0.0000  -0.0000  -0.0000  -0.0000
    -0.0000  -0.0000  -0.0000  -0.0000  -0.0000  -0.0000  -0.0000  -0.0000
    -0.0000  -0.0000  -0.0000  -0.0000

     the Fermi energy is     3.4156 ev

!    total energy              =    -904.94178675 Ry

     total all-electron energy =    -18445.350809 Ry
     estimated scf accuracy    <          5.5E-09 Ry
     smearing contrib. (-TS)   =      -0.00762736 Ry
     internal energy E=F+TS    =    -904.93415938 Ry

     The total energy is F=E-TS. E is the sum of the following terms:
     one-electron contribution =   -1042.12644025 Ry
     hartree contribution      =     533.03741037 Ry
     xc contribution           =     -64.65551822 Ry
     ewald contribution        =     256.18108273 Ry
     one-center paw contrib.   =    -587.37069402 Ry
      -> PAW hartree energy AE =     125.94557596 Ry
      -> PAW hartree energy PS =    -125.72171662 Ry
      -> PAW xc energy AE      =    -326.51280815 Ry
      -> PAW xc energy PS      =      32.60457782 Ry
      -> total E_H with PAW    =     533.26126971 Ry
      -> total E_XC with PAW   =    -358.56374855 Ry

     convergence has been achieved in  15 iterations

     Writing output data file ./tmp/NbS2_bi.save/

     init_run     :      1.49s CPU      1.63s WALL (       1 calls)
     electrons    :     25.66s CPU     29.03s WALL (       1 calls)

     Called by init_run:
     wfcinit      :      0.16s CPU      0.16s WALL (       1 calls)
     wfcinit:atom :      0.00s CPU      0.00s WALL (       4 calls)
     wfcinit:wfcr :      0.15s CPU      0.16s WALL (       4 calls)
     potinit      :      0.31s CPU      0.34s WALL (       1 calls)
     hinit0       :      0.58s CPU      0.58s WALL (       1 calls)

     Called by electrons:
     c_bands      :      7.80s CPU      8.01s WALL (      15 calls)
     sum_band     :      9.76s CPU     11.47s WALL (      15 calls)
     v_of_rho     :      0.49s CPU      0.55s WALL (      16 calls)
     v_h          :      0.26s CPU      0.29s WALL (      16 calls)
     v_xc         :      0.23s CPU      0.26s WALL (      16 calls)
     newd         :      6.30s CPU      7.78s WALL (      16 calls)
     PAW_pot      :      0.94s CPU      0.94s WALL (      16 calls)
     mix_rho      :      0.49s CPU      0.50s WALL (      15 calls)

     Called by c_bands:
     init_us_2    :      0.04s CPU      0.05s WALL (     124 calls)
     cegterg      :      7.69s CPU      7.89s WALL (      60 calls)

     Called by sum_band:
     sum_band:wei :      0.00s CPU      0.00s WALL (      15 calls)
     sum_band:loo :      0.88s CPU      0.90s WALL (      15 calls)
     sum_band:buf :      0.02s CPU      0.02s WALL (      60 calls)
     sum_band:ini :      0.02s CPU      0.02s WALL (      60 calls)
     sum_band:cal :      0.22s CPU      0.22s WALL (      60 calls)
     sum_band:bec :      0.01s CPU      0.01s WALL (      60 calls)
     addusdens    :      8.55s CPU     10.20s WALL (      15 calls)
     addusd:skk   :      0.04s CPU      0.05s WALL (      30 calls)
     addusd:dgemm :      3.33s CPU      4.72s WALL (      30 calls)
     addusd:qvan2 :      4.66s CPU      4.66s WALL (      30 calls)

     Called by *egterg:
     cdiaghg      :      1.29s CPU      1.29s WALL (     248 calls)
     cegterg:over :      0.95s CPU      0.96s WALL (     188 calls)
     cegterg:upda :      0.44s CPU      0.44s WALL (     188 calls)
     cegterg:last :      0.94s CPU      0.95s WALL (     102 calls)
     h_psi        :      3.26s CPU      3.44s WALL (     252 calls)
     s_psi        :      0.43s CPU      0.43s WALL (     252 calls)
     g_psi        :      0.01s CPU      0.01s WALL (     188 calls)

     Called by h_psi:
     h_psi:calbec :      0.55s CPU      0.57s WALL (     252 calls)
     vloc_psi     :      2.25s CPU      2.41s WALL (     252 calls)
     add_vuspsi   :      0.43s CPU      0.43s WALL (     252 calls)

     General routines
     calbec       :      0.77s CPU      0.79s WALL (     312 calls)
     fft          :      1.25s CPU      1.31s WALL (      94 calls)
     ffts         :      0.01s CPU      0.01s WALL (      31 calls)
     fftw         :      2.61s CPU      2.78s WALL (   20416 calls)
     interpolate  :      0.24s CPU      0.25s WALL (      16 calls)

     Parallel routines
     fft_scatt_xy :      0.49s CPU      0.52s WALL (   20541 calls)
     fft_scatt_yz :      0.74s CPU      0.81s WALL (   20541 calls)

     PAW routines
     PAW_pot      :      0.94s CPU      0.94s WALL (      16 calls)
     PAW_symme    :      0.01s CPU      0.01s WALL (      31 calls)

     PWSCF        :     28.21s CPU     31.82s WALL


   This run was terminated on:  15:51:58  14Jun2021            

=------------------------------------------------------------------------------=
   JOB DONE.
=------------------------------------------------------------------------------=
