
     Program PWSCF v.6.6 starts on 14Jun2021 at 15:51:59 

     This program is part of the open-source Quantum ESPRESSO suite
     for quantum simulation of materials; please cite
         "P. Giannozzi et al., J. Phys.:Condens. Matter 21 395502 (2009);
         "P. Giannozzi et al., J. Phys.:Condens. Matter 29 465901 (2017);
          URL http://www.quantum-espresso.org", 
     in publications or presentations arising from this work. More details at
     http://www.quantum-espresso.org/quote

     Parallel version (MPI), running on     2 processors

     MPI processes distributed on     1 nodes
     R & G space division:  proc/nbgrp/npool/nimage =       2
     Fft bands division:     nmany     =       1
     Waiting for input...
     Reading input from standard input

     Current dimensions of program PWSCF are:
     Max number of different atomic species (ntypx) = 10
     Max number of k-points (npk) =  40000
     Max angular momentum in pseudopotentials (lmaxx) =  3
     file Nb.pz-spn-kjpaw_psl.1.0.0.UPF: wavefunction(s)  4S 4P 4D renormalized
     file S.pz-n-kjpaw_psl.0.1.UPF: wavefunction(s)  3P renormalized

     Subspace diagonalization in iterative solution of the eigenvalue problem:
     a serial algorithm will be used


     Parallelization info
     --------------------
     sticks:   dense  smooth     PW     G-vecs:    dense   smooth      PW
     Min         534     105     30                85019     7595    1326
     Max         535     106     31                85022     7602    1339
     Sum        1069     211     61               170041    15197    2665



     bravais-lattice index     =            4
     lattice parameter (alat)  =       6.2006  a.u.
     unit-cell volume          =    1258.4114 (a.u.)^3
     number of atoms/cell      =            6
     number of atomic types    =            2
     number of electrons       =        50.00
     number of Kohn-Sham states=           60
     kinetic-energy cutoff     =      20.0000  Ry
     charge density cutoff     =     400.0000  Ry
     convergence threshold     =      1.0E-08
     mixing beta               =       0.7000
     number of iterations used =            8  plain     mixing
     Exchange-correlation= SLA PZ NOGX NOGC
                           (   1   1   0   0   0   0   0)

     celldm(1)=   6.200569  celldm(2)=   0.000000  celldm(3)=   6.095331
     celldm(4)=   0.000000  celldm(5)=   0.000000  celldm(6)=   0.000000

     crystal axes: (cart. coord. in units of alat)
               a(1) = (   1.000000   0.000000   0.000000 )  
               a(2) = (  -0.500000   0.866025   0.000000 )  
               a(3) = (   0.000000   0.000000   6.095331 )  

     reciprocal axes: (cart. coord. in units 2 pi/alat)
               b(1) = (  1.000000  0.577350 -0.000000 )  
               b(2) = (  0.000000  1.154701  0.000000 )  
               b(3) = (  0.000000 -0.000000  0.164060 )  


     PseudoPot. # 1 for Nb read from file:
     ../Nb.pz-spn-kjpaw_psl.1.0.0.UPF
     MD5 check sum: 38c2e04b3cc915696ca8dc9f46a23270
     Pseudo is Projector augmented-wave + core cor, Zval = 13.0
     Generated using "atomic" code by A. Dal Corso v.6.2.2
     Shape of augmentation charge: PSQ
     Using radial grid of 1227 points,  6 beta functions with: 
                l(1) =   0
                l(2) =   0
                l(3) =   1
                l(4) =   1
                l(5) =   2
                l(6) =   2
     Q(r) pseudized with 0 coefficients 


     PseudoPot. # 2 for S  read from file:
     ../S.pz-n-kjpaw_psl.0.1.UPF
     MD5 check sum: c0b1682311cf098e03f7841691d9a679
     Pseudo is Projector augmented-wave + core cor, Zval =  6.0
     Generated using "atomic" code by A. Dal Corso v.5.0.2 svn rev. 9415
     Shape of augmentation charge: PSQ
     Using radial grid of 1151 points,  4 beta functions with: 
                l(1) =   0
                l(2) =   0
                l(3) =   1
                l(4) =   1
     Q(r) pseudized with 0 coefficients 


     atomic species   valence    mass     pseudopotential
        Nb            13.00    92.90600     Nb( 1.00)
        S              6.00    32.06500     S ( 1.00)

      6 Sym. Ops. (no inversion) found


                                    s                        frac. trans.

      isym =  1     identity                                     

 cryst.   s( 1) = (     1          0          0      )
                  (     0          1          0      )
                  (     0          0          1      )

 cart.    s( 1) = (  1.0000000  0.0000000  0.0000000 )
                  (  0.0000000  1.0000000  0.0000000 )
                  (  0.0000000  0.0000000  1.0000000 )


      isym =  2     120 deg rotation - cryst. axis [0,0,1]       

 cryst.   s( 2) = (     0          1          0      )
                  (    -1         -1          0      )
                  (     0          0          1      )

 cart.    s( 2) = ( -0.5000000 -0.8660254  0.0000000 )
                  (  0.8660254 -0.5000000  0.0000000 )
                  (  0.0000000  0.0000000  1.0000000 )


      isym =  3     120 deg rotation - cryst. axis [0,0,-1]      

 cryst.   s( 3) = (    -1         -1          0      )
                  (     1          0          0      )
                  (     0          0          1      )

 cart.    s( 3) = ( -0.5000000  0.8660254  0.0000000 )
                  ( -0.8660254 -0.5000000  0.0000000 )
                  (  0.0000000  0.0000000  1.0000000 )


      isym =  4     inv. 180 deg rotation - cart. axis [1,0,0]   

 cryst.   s( 4) = (    -1          0          0      )
                  (     1          1          0      )
                  (     0          0          1      )

 cart.    s( 4) = ( -1.0000000  0.0000000  0.0000000 )
                  (  0.0000000  1.0000000  0.0000000 )
                  (  0.0000000  0.0000000  1.0000000 )


      isym =  5     inv. 180 deg rotation - cryst. axis [0,1,0]  

 cryst.   s( 5) = (     1          1          0      )
                  (     0         -1          0      )
                  (     0          0          1      )

 cart.    s( 5) = (  0.5000000  0.8660254  0.0000000 )
                  (  0.8660254 -0.5000000  0.0000000 )
                  (  0.0000000  0.0000000  1.0000000 )


      isym =  6     inv. 180 deg rotation - cryst. axis [1,1,0]  

 cryst.   s( 6) = (     0         -1          0      )
                  (    -1          0          0      )
                  (     0          0          1      )

 cart.    s( 6) = (  0.5000000 -0.8660254  0.0000000 )
                  ( -0.8660254 -0.5000000  0.0000000 )
                  (  0.0000000  0.0000000  1.0000000 )


     point group C_3v (3m)  
     there are  3 classes
     the character table:

       E     2C3   3s_v 
A_1    1.00  1.00  1.00
A_2    1.00  1.00 -1.00
E      2.00 -1.00  0.00

     the symmetry operations in each class and the name of the first element:

     E        1
          identity                                               
     2C3      2    3
          120 deg rotation - cryst. axis [0,0,1]                 
     3s_v     4    5    6
          inv. 180 deg rotation - cart. axis [1,0,0]             

   Cartesian axes

     site n.     atom                  positions (alat units)
         1           S   tau(   1) = (   0.0000000   0.5773503   1.4932768  )
         2           Nb  tau(   2) = (   0.0000000   0.0000000   1.0094618  )
         3           S   tau(   3) = (   0.0000000   0.5773503   0.5321904  )
         4           S   tau(   4) = (   0.5000000   0.2886751   2.5511139  )
         5           Nb  tau(   5) = (   0.0000000   0.0000000   3.0283905  )
         6           S   tau(   6) = (   0.5000000   0.2886751   3.5056620  )

   Crystallographic axes

     site n.     atom                  positions (cryst. coord.)
         1           S   tau(   1) = (  0.3333333  0.6666667  0.2449870  )
         2           Nb  tau(   2) = (  0.0000000  0.0000000  0.1656123  )
         3           S   tau(   3) = (  0.3333333  0.6666667  0.0873112  )
         4           S   tau(   4) = (  0.6666667  0.3333333  0.4185358  )
         5           Nb  tau(   5) = (  0.0000000  0.0000000  0.4968378  )
         6           S   tau(   6) = (  0.6666667  0.3333333  0.5751389  )

     number of k points=     4  Methfessel-Paxton smearing, width (Ry)=  0.0200
                       cart. coord. in units 2pi/alat
        k(    1) = (   0.0000000   0.0000000   0.0000000), wk =   0.1250000
        k(    2) = (   0.0000000   0.2886751   0.0000000), wk =   0.7500000
        k(    3) = (   0.0000000  -0.5773503   0.0000000), wk =   0.3750000
        k(    4) = (   0.2500000   0.4330127   0.0000000), wk =   0.7500000

                       cryst. coord.
        k(    1) = (   0.0000000   0.0000000   0.0000000), wk =   0.1250000
        k(    2) = (   0.0000000   0.2500000   0.0000000), wk =   0.7500000
        k(    3) = (   0.0000000  -0.5000000   0.0000000), wk =   0.3750000
        k(    4) = (   0.2500000   0.2500000   0.0000000), wk =   0.7500000

     Dense  grid:   170041 G-vectors     FFT dimensions: (  40,  40, 243)

     Smooth grid:    15197 G-vectors     FFT dimensions: (  18,  18, 108)

     Dynamical RAM for                 wfc:       0.87 MB

     Dynamical RAM for     wfc (w. buffer):       4.35 MB

     Dynamical RAM for           str. fact:       2.59 MB

     Dynamical RAM for           local pot:       0.00 MB

     Dynamical RAM for          nlocal pot:       0.99 MB

     Dynamical RAM for                qrad:       3.21 MB

     Dynamical RAM for          rho,v,vnew:       8.36 MB

     Dynamical RAM for               rhoin:       2.79 MB

     Dynamical RAM for            rho*nmix:      20.76 MB

     Dynamical RAM for           G-vectors:       4.92 MB

     Dynamical RAM for          h,s,v(r/c):       0.66 MB

     Dynamical RAM for          <psi|beta>:       0.06 MB

     Dynamical RAM for                 psi:       1.74 MB

     Dynamical RAM for                hpsi:       1.74 MB

     Dynamical RAM for                spsi:       1.74 MB

     Dynamical RAM for      wfcinit/wfcrot:       1.82 MB

     Dynamical RAM for           addusdens:     246.48 MB

     Estimated static dynamical RAM per process >      59.30 MB

     Estimated max dynamical RAM per process >     305.79 MB

     Estimated total dynamical RAM >     611.58 MB

     Initial potential from superposition of free atoms

     starting charge   49.99775, renormalised to   50.00000

     negative rho (up, down):  7.872E-05 0.000E+00
     Starting wfcs are   42 randomized atomic wfcs +   18 random wfcs
     Checking if some PAW data can be deallocated... 

     total cpu time spent up to now is        2.8 secs

     Self-consistent Calculation

     iteration #  1     ecut=    20.00 Ry     beta= 0.70
     Davidson diagonalization with overlap
     ethr =  1.00E-02,  avg # of iterations =  8.2

     Threshold (ethr) on eigenvalues was too large:
     Diagonalizing with lowered threshold

     Davidson diagonalization with overlap
     ethr =  8.65E-04,  avg # of iterations =  1.0

     negative rho (up, down):  4.461E-05 0.000E+00

     total cpu time spent up to now is        7.3 secs

     total energy              =    -906.80253822 Ry
     estimated scf accuracy    <       0.43517495 Ry

     iteration #  2     ecut=    20.00 Ry     beta= 0.70
     Davidson diagonalization with overlap
     ethr =  8.70E-04,  avg # of iterations =  5.2

     negative rho (up, down):  4.911E-04 0.000E+00

     total cpu time spent up to now is        9.8 secs

     total energy              =    -906.38560754 Ry
     estimated scf accuracy    <       3.79958391 Ry

     iteration #  3     ecut=    20.00 Ry     beta= 0.70
     Davidson diagonalization with overlap
     ethr =  8.70E-04,  avg # of iterations =  6.2

     negative rho (up, down):  3.119E-03 0.000E+00

     total cpu time spent up to now is       12.3 secs

     total energy              =    -904.63274692 Ry
     estimated scf accuracy    <      93.79336722 Ry

     iteration #  4     ecut=    20.00 Ry     beta= 0.70
     Davidson diagonalization with overlap
     ethr =  8.70E-04,  avg # of iterations =  6.5

     negative rho (up, down):  1.076E-03 0.000E+00

     total cpu time spent up to now is       14.7 secs

     total energy              =    -906.92731722 Ry
     estimated scf accuracy    <       0.87524043 Ry

     iteration #  5     ecut=    20.00 Ry     beta= 0.70
     Davidson diagonalization with overlap
     ethr =  8.70E-04,  avg # of iterations =  4.8

     negative rho (up, down):  6.296E-04 0.000E+00

     total cpu time spent up to now is       17.0 secs

     total energy              =    -906.96856478 Ry
     estimated scf accuracy    <       0.85251234 Ry

     iteration #  6     ecut=    20.00 Ry     beta= 0.70
     Davidson diagonalization with overlap
     ethr =  8.70E-04,  avg # of iterations =  1.2

     negative rho (up, down):  1.724E-04 0.000E+00

     total cpu time spent up to now is       19.1 secs

     total energy              =    -906.97614083 Ry
     estimated scf accuracy    <       0.16462068 Ry

     iteration #  7     ecut=    20.00 Ry     beta= 0.70
     Davidson diagonalization with overlap
     ethr =  3.29E-04,  avg # of iterations =  1.2

     negative rho (up, down):  1.387E-04 0.000E+00

     total cpu time spent up to now is       21.2 secs

     total energy              =    -906.98148581 Ry
     estimated scf accuracy    <       0.24502552 Ry

     iteration #  8     ecut=    20.00 Ry     beta= 0.70
     Davidson diagonalization with overlap
     ethr =  3.29E-04,  avg # of iterations =  1.0

     negative rho (up, down):  6.642E-05 0.000E+00

     total cpu time spent up to now is       23.3 secs

     total energy              =    -906.98252527 Ry
     estimated scf accuracy    <       0.00523384 Ry

     iteration #  9     ecut=    20.00 Ry     beta= 0.70
     Davidson diagonalization with overlap
     ethr =  1.05E-05,  avg # of iterations =  8.5

     negative rho (up, down):  6.677E-05 0.000E+00

     total cpu time spent up to now is       25.7 secs

     total energy              =    -906.98130513 Ry
     estimated scf accuracy    <       0.15565966 Ry

     iteration # 10     ecut=    20.00 Ry     beta= 0.70
     Davidson diagonalization with overlap
     ethr =  1.05E-05,  avg # of iterations =  1.5

     negative rho (up, down):  2.866E-05 0.000E+00

     total cpu time spent up to now is       27.8 secs

     total energy              =    -906.98284624 Ry
     estimated scf accuracy    <       0.00182620 Ry

     iteration # 11     ecut=    20.00 Ry     beta= 0.70
     Davidson diagonalization with overlap
     ethr =  3.65E-06,  avg # of iterations =  1.5

     negative rho (up, down):  2.857E-05 0.000E+00

     total cpu time spent up to now is       29.9 secs

     total energy              =    -906.98286927 Ry
     estimated scf accuracy    <       0.00546517 Ry

     iteration # 12     ecut=    20.00 Ry     beta= 0.70
     Davidson diagonalization with overlap
     ethr =  3.65E-06,  avg # of iterations =  1.0

     negative rho (up, down):  2.672E-05 0.000E+00

     total cpu time spent up to now is       31.9 secs

     total energy              =    -906.98290527 Ry
     estimated scf accuracy    <       0.00000759 Ry

     iteration # 13     ecut=    20.00 Ry     beta= 0.70
     Davidson diagonalization with overlap
     ethr =  1.52E-08,  avg # of iterations =  1.5

     negative rho (up, down):  2.654E-05 0.000E+00

     total cpu time spent up to now is       34.1 secs

     total energy              =    -906.98290561 Ry
     estimated scf accuracy    <       0.00000010 Ry

     iteration # 14     ecut=    20.00 Ry     beta= 0.70
     Davidson diagonalization with overlap
     ethr =  1.92E-10,  avg # of iterations =  2.5

     negative rho (up, down):  2.652E-05 0.000E+00

     total cpu time spent up to now is       36.3 secs

     total energy              =    -906.98290563 Ry
     estimated scf accuracy    <       0.00000003 Ry

     iteration # 15     ecut=    20.00 Ry     beta= 0.70
     Davidson diagonalization with overlap
     ethr =  6.31E-11,  avg # of iterations =  1.0

     negative rho (up, down):  2.652E-05 0.000E+00

     total cpu time spent up to now is       38.3 secs

     total energy              =    -906.98290563 Ry
     estimated scf accuracy    <       0.00000001 Ry

     iteration # 16     ecut=    20.00 Ry     beta= 0.70
     Davidson diagonalization with overlap
     ethr =  2.19E-11,  avg # of iterations =  1.0

     negative rho (up, down):  2.652E-05 0.000E+00

     total cpu time spent up to now is       40.3 secs

     End of self-consistent calculation

          k = 0.0000 0.0000 0.0000 (  1919 PWs)   bands (ev):

   -52.5900 -52.5738 -28.1586 -28.1497 -28.0809 -28.0809 -28.0290 -28.0290
   -10.3744 -10.3084  -9.0548  -8.9566  -2.1260  -1.8183   0.9528   0.9528
     1.0113   1.0113   1.4083   2.1294   2.1294   2.1453   2.1738   2.1738
     3.9481   4.3717   6.4728   6.4728   6.5079   6.5079   6.5726   6.5726
     6.5987   6.5987   8.5390   8.6925   9.0306   9.6657  11.4382  11.6191
    11.7216  12.0871  14.0905  14.0905  14.0931  14.1003  14.1003  15.9392
    16.1045  16.1045  16.3825  16.3825  16.3847  17.1759  18.0912  18.5196
    18.7958  19.1286  19.1287  19.6632

     occupation numbers 
     1.0000   1.0000   1.0000   1.0000   1.0000   1.0000   1.0000   1.0000
     1.0000   1.0000   1.0000   1.0000   1.0000   1.0000   1.0000   1.0000
     1.0000   1.0000   1.0000   1.0000   1.0000   1.0000   1.0000   1.0000
    -0.0007  -0.0000  -0.0000  -0.0000  -0.0000  -0.0000  -0.0000  -0.0000
    -0.0000  -0.0000  -0.0000  -0.0000  -0.0000  -0.0000  -0.0000  -0.0000
    -0.0000  -0.0000  -0.0000  -0.0000  -0.0000  -0.0000  -0.0000  -0.0000
    -0.0000  -0.0000  -0.0000  -0.0000  -0.0000  -0.0000  -0.0000  -0.0000
    -0.0000  -0.0000  -0.0000  -0.0000

          k = 0.0000 0.2887 0.0000 (  1914 PWs)   bands (ev):

   -52.5662 -52.5506 -28.2317 -28.2149 -28.1895 -28.1239 -28.1083 -28.0894
    -9.6155  -9.5570  -8.8095  -8.7343  -1.4730  -1.2449  -0.3382  -0.2964
     0.0188   0.2119   1.1350   1.1891   1.6971   1.7537   1.9814   2.3472
     3.1637   3.2483   5.9572   6.2216   6.2701   6.3433   6.7064   6.9705
     7.6029   7.7022   9.9446  10.4286  10.9334  11.6263  11.9691  12.4246
    12.5709  12.6261  13.0896  13.2901  14.4221  14.9744  15.2082  15.3621
    15.7921  15.9631  16.1372  16.4325  16.7667  16.9049  16.9131  17.4514
    17.5330  17.9956  18.2180  19.1737

     occupation numbers 
     1.0000   1.0000   1.0000   1.0000   1.0000   1.0000   1.0000   1.0000
     1.0000   1.0000   1.0000   1.0000   1.0000   1.0000   1.0000   1.0000
     1.0000   1.0000   1.0000   1.0000   1.0000   1.0000   1.0000   1.0000
     0.7174   0.4631  -0.0000  -0.0000  -0.0000  -0.0000  -0.0000  -0.0000
    -0.0000  -0.0000  -0.0000  -0.0000  -0.0000  -0.0000  -0.0000  -0.0000
    -0.0000  -0.0000  -0.0000  -0.0000  -0.0000  -0.0000  -0.0000  -0.0000
    -0.0000  -0.0000  -0.0000  -0.0000  -0.0000  -0.0000  -0.0000  -0.0000
    -0.0000  -0.0000  -0.0000  -0.0000

          k = 0.0000-0.5774 0.0000 (  1888 PWs)   bands (ev):

   -52.5352 -52.5235 -28.4258 -28.4018 -28.1335 -28.1219 -28.1203 -28.1092
    -8.6908  -8.6535  -8.5116  -8.4820  -2.0927  -2.0508  -1.1179  -0.9906
    -0.4335  -0.4037   0.4802   0.5244   1.5833   1.9194   2.3163   2.3707
     3.0157   3.1328   6.6589   6.6782   7.0342   7.0470   7.3776   7.7032
     8.2839   8.3859   9.3648   9.8936  11.1682  11.1851  11.6226  11.7462
    12.6607  12.7078  13.3028  13.5699  14.0393  14.1034  14.1149  14.4904
    15.1386  15.1464  16.5566  16.9803  17.7868  17.8782  18.2189  18.8460
    19.2191  19.2394  20.1899  20.3710

     occupation numbers 
     1.0000   1.0000   1.0000   1.0000   1.0000   1.0000   1.0000   1.0000
     1.0000   1.0000   1.0000   1.0000   1.0000   1.0000   1.0000   1.0000
     1.0000   1.0000   1.0000   1.0000   1.0000   1.0000   1.0000   1.0000
     0.9928   0.7978  -0.0000  -0.0000  -0.0000  -0.0000  -0.0000  -0.0000
    -0.0000  -0.0000  -0.0000  -0.0000  -0.0000  -0.0000  -0.0000  -0.0000
    -0.0000  -0.0000  -0.0000  -0.0000  -0.0000  -0.0000  -0.0000  -0.0000
    -0.0000  -0.0000  -0.0000  -0.0000  -0.0000  -0.0000  -0.0000  -0.0000
    -0.0000  -0.0000  -0.0000  -0.0000

          k = 0.2500 0.4330 0.0000 (  1902 PWs)   bands (ev):

   -52.5397 -52.5284 -28.3584 -28.3517 -28.2245 -28.2158 -28.1391 -28.1080
    -8.7093  -8.6688  -8.4909  -8.4575  -1.4695  -1.3912  -1.2357  -1.2007
    -0.1393  -0.0437   0.3823   0.5281   0.6732   0.6939   1.8733   2.0037
     3.2930   3.3164   6.0834   6.3167   7.0249   7.1259   7.1626   7.2961
     8.4920   8.5573  10.7976  10.9874  11.6397  11.7153  11.8517  12.7286
    12.9872  13.0505  13.2118  14.0617  14.5125  14.6172  14.9565  15.3909
    15.4521  15.5363  15.6156  15.8501  16.2944  16.8605  16.8806  17.4565
    17.6095  17.9790  18.1958  19.0139

     occupation numbers 
     1.0000   1.0000   1.0000   1.0000   1.0000   1.0000   1.0000   1.0000
     1.0000   1.0000   1.0000   1.0000   1.0000   1.0000   1.0000   1.0000
     1.0000   1.0000   1.0000   1.0000   1.0000   1.0000   1.0000   1.0000
     0.3281   0.2628  -0.0000  -0.0000  -0.0000  -0.0000  -0.0000  -0.0000
    -0.0000  -0.0000  -0.0000  -0.0000  -0.0000  -0.0000  -0.0000  -0.0000
    -0.0000  -0.0000  -0.0000  -0.0000  -0.0000  -0.0000  -0.0000  -0.0000
    -0.0000  -0.0000  -0.0000  -0.0000  -0.0000  -0.0000  -0.0000  -0.0000
    -0.0000  -0.0000  -0.0000  -0.0000

     the Fermi energy is     3.2364 ev

!    total energy              =    -906.98290563 Ry

     total all-electron energy =    -18447.391928 Ry
     estimated scf accuracy    <          2.3E-09 Ry
     smearing contrib. (-TS)   =      -0.00771846 Ry
     internal energy E=F+TS    =    -906.97518717 Ry

     The total energy is F=E-TS. E is the sum of the following terms:
     one-electron contribution =   -1046.29410117 Ry
     hartree contribution      =     536.11440612 Ry
     xc contribution           =     -65.11289736 Ry
     ewald contribution        =     256.18108273 Ry
     one-center paw contrib.   =    -587.86367748 Ry
      -> PAW hartree energy AE =     103.63000209 Ry
      -> PAW hartree energy PS =    -103.22281546 Ry
      -> PAW xc energy AE      =    -324.58093886 Ry
      -> PAW xc energy PS      =      30.24283469 Ry
      -> total E_H with PAW    =     536.52159274 Ry
      -> total E_XC with PAW   =    -359.45100153 Ry

     convergence has been achieved in  16 iterations

     Writing output data file ./tmp/NbS2_bi.save/

     init_run     :      1.61s CPU      1.74s WALL (       1 calls)
     electrons    :     33.61s CPU     37.60s WALL (       1 calls)

     Called by init_run:
     wfcinit      :      0.26s CPU      0.27s WALL (       1 calls)
     wfcinit:atom :      0.00s CPU      0.00s WALL (       4 calls)
     wfcinit:wfcr :      0.25s CPU      0.26s WALL (       4 calls)
     potinit      :      0.32s CPU      0.33s WALL (       1 calls)
     hinit0       :      0.58s CPU      0.59s WALL (       1 calls)

     Called by electrons:
     c_bands      :     13.82s CPU     14.02s WALL (      17 calls)
     sum_band     :     11.23s CPU     13.39s WALL (      17 calls)
     v_of_rho     :      0.52s CPU      0.57s WALL (      17 calls)
     v_h          :      0.30s CPU      0.30s WALL (      17 calls)
     v_xc         :      0.23s CPU      0.26s WALL (      17 calls)
     newd         :      6.65s CPU      8.29s WALL (      17 calls)
     PAW_pot      :      0.99s CPU      0.99s WALL (      17 calls)
     mix_rho      :      0.53s CPU      0.54s WALL (      17 calls)

     Called by c_bands:
     init_us_2    :      0.07s CPU      0.08s WALL (     140 calls)
     cegterg      :     13.62s CPU     13.82s WALL (      68 calls)

     Called by sum_band:
     sum_band:wei :      0.01s CPU      0.01s WALL (      17 calls)
     sum_band:loo :      1.55s CPU      1.60s WALL (      17 calls)
     sum_band:buf :      0.03s CPU      0.03s WALL (      68 calls)
     sum_band:ini :      0.03s CPU      0.03s WALL (      68 calls)
     sum_band:cal :      0.40s CPU      0.40s WALL (      68 calls)
     sum_band:bec :      0.01s CPU      0.01s WALL (      68 calls)
     addusdens    :      9.27s CPU     11.35s WALL (      17 calls)
     addusd:skk   :      0.04s CPU      0.05s WALL (      34 calls)
     addusd:dgemm :      3.55s CPU      5.31s WALL (      34 calls)
     addusd:qvan2 :      5.13s CPU      5.13s WALL (      34 calls)

     Called by *egterg:
     cdiaghg      :      1.50s CPU      1.51s WALL (     280 calls)
     cegterg:over :      1.63s CPU      1.64s WALL (     216 calls)
     cegterg:upda :      0.82s CPU      0.82s WALL (     216 calls)
     cegterg:last :      1.80s CPU      1.80s WALL (     112 calls)
     h_psi        :      6.53s CPU      6.69s WALL (     288 calls)
     s_psi        :      0.74s CPU      0.76s WALL (     288 calls)
     g_psi        :      0.02s CPU      0.02s WALL (     216 calls)

     Called by h_psi:
     h_psi:calbec :      0.97s CPU      0.98s WALL (     288 calls)
     vloc_psi     :      4.75s CPU      4.89s WALL (     288 calls)
     add_vuspsi   :      0.76s CPU      0.77s WALL (     288 calls)

     General routines
     calbec       :      1.37s CPU      1.39s WALL (     356 calls)
     fft          :      1.34s CPU      1.39s WALL (     101 calls)
     ffts         :      0.02s CPU      0.02s WALL (      34 calls)
     fftw         :      5.38s CPU      5.54s WALL (   22982 calls)
     interpolate  :      0.26s CPU      0.27s WALL (      17 calls)

     Parallel routines
     fft_scatt_xy :      0.77s CPU      0.79s WALL (   23117 calls)
     fft_scatt_yz :      0.84s CPU      0.89s WALL (   23117 calls)

     PAW routines
     PAW_pot      :      0.99s CPU      0.99s WALL (      17 calls)
     PAW_symme    :      0.00s CPU      0.00s WALL (      34 calls)

     PWSCF        :     36.27s CPU     40.51s WALL


   This run was terminated on:  15:52:39  14Jun2021            

=------------------------------------------------------------------------------=
   JOB DONE.
=------------------------------------------------------------------------------=
