
     Program PWSCF v.6.6 starts on 14Jun2021 at 15:58:12 

     This program is part of the open-source Quantum ESPRESSO suite
     for quantum simulation of materials; please cite
         "P. Giannozzi et al., J. Phys.:Condens. Matter 21 395502 (2009);
         "P. Giannozzi et al., J. Phys.:Condens. Matter 29 465901 (2017);
          URL http://www.quantum-espresso.org", 
     in publications or presentations arising from this work. More details at
     http://www.quantum-espresso.org/quote

     Parallel version (MPI), running on     2 processors

     MPI processes distributed on     1 nodes
     R & G space division:  proc/nbgrp/npool/nimage =       2
     Fft bands division:     nmany     =       1
     Waiting for input...
     Reading input from standard input

     Current dimensions of program PWSCF are:
     Max number of different atomic species (ntypx) = 10
     Max number of k-points (npk) =  40000
     Max angular momentum in pseudopotentials (lmaxx) =  3
     file Nb.pz-spn-kjpaw_psl.1.0.0.UPF: wavefunction(s)  4S 4P 4D renormalized
     file S.pz-n-kjpaw_psl.0.1.UPF: wavefunction(s)  3P renormalized

     Subspace diagonalization in iterative solution of the eigenvalue problem:
     a serial algorithm will be used


     Parallelization info
     --------------------
     sticks:   dense  smooth     PW     G-vecs:    dense   smooth      PW
     Min         534     258     75                85019    29946    4747
     Max         535     259     76                85022    29961    4772
     Sum        1069     517    151               170041    59907    9519



     bravais-lattice index     =            4
     lattice parameter (alat)  =       6.2006  a.u.
     unit-cell volume          =    1258.4114 (a.u.)^3
     number of atoms/cell      =            6
     number of atomic types    =            2
     number of electrons       =        50.00
     number of Kohn-Sham states=           60
     kinetic-energy cutoff     =      50.0000  Ry
     charge density cutoff     =     400.0000  Ry
     convergence threshold     =      1.0E-08
     mixing beta               =       0.7000
     number of iterations used =            8  plain     mixing
     Exchange-correlation= SLA PZ NOGX NOGC
                           (   1   1   0   0   0   0   0)

     celldm(1)=   6.200569  celldm(2)=   0.000000  celldm(3)=   6.095331
     celldm(4)=   0.000000  celldm(5)=   0.000000  celldm(6)=   0.000000

     crystal axes: (cart. coord. in units of alat)
               a(1) = (   1.000000   0.000000   0.000000 )  
               a(2) = (  -0.500000   0.866025   0.000000 )  
               a(3) = (   0.000000   0.000000   6.095331 )  

     reciprocal axes: (cart. coord. in units 2 pi/alat)
               b(1) = (  1.000000  0.577350 -0.000000 )  
               b(2) = (  0.000000  1.154701  0.000000 )  
               b(3) = (  0.000000 -0.000000  0.164060 )  


     PseudoPot. # 1 for Nb read from file:
     ../Nb.pz-spn-kjpaw_psl.1.0.0.UPF
     MD5 check sum: 38c2e04b3cc915696ca8dc9f46a23270
     Pseudo is Projector augmented-wave + core cor, Zval = 13.0
     Generated using "atomic" code by A. Dal Corso v.6.2.2
     Shape of augmentation charge: PSQ
     Using radial grid of 1227 points,  6 beta functions with: 
                l(1) =   0
                l(2) =   0
                l(3) =   1
                l(4) =   1
                l(5) =   2
                l(6) =   2
     Q(r) pseudized with 0 coefficients 


     PseudoPot. # 2 for S  read from file:
     ../S.pz-n-kjpaw_psl.0.1.UPF
     MD5 check sum: c0b1682311cf098e03f7841691d9a679
     Pseudo is Projector augmented-wave + core cor, Zval =  6.0
     Generated using "atomic" code by A. Dal Corso v.5.0.2 svn rev. 9415
     Shape of augmentation charge: PSQ
     Using radial grid of 1151 points,  4 beta functions with: 
                l(1) =   0
                l(2) =   0
                l(3) =   1
                l(4) =   1
     Q(r) pseudized with 0 coefficients 


     atomic species   valence    mass     pseudopotential
        Nb            13.00    92.90600     Nb( 1.00)
        S              6.00    32.06500     S ( 1.00)

      6 Sym. Ops. (no inversion) found


                                    s                        frac. trans.

      isym =  1     identity                                     

 cryst.   s( 1) = (     1          0          0      )
                  (     0          1          0      )
                  (     0          0          1      )

 cart.    s( 1) = (  1.0000000  0.0000000  0.0000000 )
                  (  0.0000000  1.0000000  0.0000000 )
                  (  0.0000000  0.0000000  1.0000000 )


      isym =  2     120 deg rotation - cryst. axis [0,0,1]       

 cryst.   s( 2) = (     0          1          0      )
                  (    -1         -1          0      )
                  (     0          0          1      )

 cart.    s( 2) = ( -0.5000000 -0.8660254  0.0000000 )
                  (  0.8660254 -0.5000000  0.0000000 )
                  (  0.0000000  0.0000000  1.0000000 )


      isym =  3     120 deg rotation - cryst. axis [0,0,-1]      

 cryst.   s( 3) = (    -1         -1          0      )
                  (     1          0          0      )
                  (     0          0          1      )

 cart.    s( 3) = ( -0.5000000  0.8660254  0.0000000 )
                  ( -0.8660254 -0.5000000  0.0000000 )
                  (  0.0000000  0.0000000  1.0000000 )


      isym =  4     inv. 180 deg rotation - cart. axis [1,0,0]   

 cryst.   s( 4) = (    -1          0          0      )
                  (     1          1          0      )
                  (     0          0          1      )

 cart.    s( 4) = ( -1.0000000  0.0000000  0.0000000 )
                  (  0.0000000  1.0000000  0.0000000 )
                  (  0.0000000  0.0000000  1.0000000 )


      isym =  5     inv. 180 deg rotation - cryst. axis [0,1,0]  

 cryst.   s( 5) = (     1          1          0      )
                  (     0         -1          0      )
                  (     0          0          1      )

 cart.    s( 5) = (  0.5000000  0.8660254  0.0000000 )
                  (  0.8660254 -0.5000000  0.0000000 )
                  (  0.0000000  0.0000000  1.0000000 )


      isym =  6     inv. 180 deg rotation - cryst. axis [1,1,0]  

 cryst.   s( 6) = (     0         -1          0      )
                  (    -1          0          0      )
                  (     0          0          1      )

 cart.    s( 6) = (  0.5000000 -0.8660254  0.0000000 )
                  ( -0.8660254 -0.5000000  0.0000000 )
                  (  0.0000000  0.0000000  1.0000000 )


     point group C_3v (3m)  
     there are  3 classes
     the character table:

       E     2C3   3s_v 
A_1    1.00  1.00  1.00
A_2    1.00  1.00 -1.00
E      2.00 -1.00  0.00

     the symmetry operations in each class and the name of the first element:

     E        1
          identity                                               
     2C3      2    3
          120 deg rotation - cryst. axis [0,0,1]                 
     3s_v     4    5    6
          inv. 180 deg rotation - cart. axis [1,0,0]             

   Cartesian axes

     site n.     atom                  positions (alat units)
         1           S   tau(   1) = (   0.0000000   0.5773503   1.4932768  )
         2           Nb  tau(   2) = (   0.0000000   0.0000000   1.0094618  )
         3           S   tau(   3) = (   0.0000000   0.5773503   0.5321904  )
         4           S   tau(   4) = (   0.5000000   0.2886751   2.5511139  )
         5           Nb  tau(   5) = (   0.0000000   0.0000000   3.0283905  )
         6           S   tau(   6) = (   0.5000000   0.2886751   3.5056620  )

   Crystallographic axes

     site n.     atom                  positions (cryst. coord.)
         1           S   tau(   1) = (  0.3333333  0.6666667  0.2449870  )
         2           Nb  tau(   2) = (  0.0000000  0.0000000  0.1656123  )
         3           S   tau(   3) = (  0.3333333  0.6666667  0.0873112  )
         4           S   tau(   4) = (  0.6666667  0.3333333  0.4185358  )
         5           Nb  tau(   5) = (  0.0000000  0.0000000  0.4968378  )
         6           S   tau(   6) = (  0.6666667  0.3333333  0.5751389  )

     number of k points=     4  Methfessel-Paxton smearing, width (Ry)=  0.0200
                       cart. coord. in units 2pi/alat
        k(    1) = (   0.0000000   0.0000000   0.0000000), wk =   0.1250000
        k(    2) = (   0.0000000   0.2886751   0.0000000), wk =   0.7500000
        k(    3) = (   0.0000000  -0.5773503   0.0000000), wk =   0.3750000
        k(    4) = (   0.2500000   0.4330127   0.0000000), wk =   0.7500000

                       cryst. coord.
        k(    1) = (   0.0000000   0.0000000   0.0000000), wk =   0.1250000
        k(    2) = (   0.0000000   0.2500000   0.0000000), wk =   0.7500000
        k(    3) = (   0.0000000  -0.5000000   0.0000000), wk =   0.3750000
        k(    4) = (   0.2500000   0.2500000   0.0000000), wk =   0.7500000

     Dense  grid:   170041 G-vectors     FFT dimensions: (  40,  40, 243)

     Smooth grid:    59907 G-vectors     FFT dimensions: (  27,  27, 180)

     Dynamical RAM for                 wfc:       3.44 MB

     Dynamical RAM for     wfc (w. buffer):      17.19 MB

     Dynamical RAM for           str. fact:       2.59 MB

     Dynamical RAM for           local pot:       0.00 MB

     Dynamical RAM for          nlocal pot:       3.90 MB

     Dynamical RAM for                qrad:       3.21 MB

     Dynamical RAM for          rho,v,vnew:       8.36 MB

     Dynamical RAM for               rhoin:       2.79 MB

     Dynamical RAM for            rho*nmix:      20.76 MB

     Dynamical RAM for           G-vectors:       5.09 MB

     Dynamical RAM for          h,s,v(r/c):       0.66 MB

     Dynamical RAM for          <psi|beta>:       0.06 MB

     Dynamical RAM for                 psi:       6.88 MB

     Dynamical RAM for                hpsi:       6.88 MB

     Dynamical RAM for                spsi:       6.88 MB

     Dynamical RAM for      wfcinit/wfcrot:       6.96 MB

     Dynamical RAM for           addusdens:     246.48 MB

     Estimated static dynamical RAM per process >      75.23 MB

     Estimated max dynamical RAM per process >     321.72 MB

     Estimated total dynamical RAM >     643.43 MB

     Initial potential from superposition of free atoms

     starting charge   49.99775, renormalised to   50.00000

     negative rho (up, down):  7.872E-05 0.000E+00
     Starting wfcs are   42 randomized atomic wfcs +   18 random wfcs
     Checking if some PAW data can be deallocated... 

     total cpu time spent up to now is        4.0 secs

     Self-consistent Calculation

     iteration #  1     ecut=    50.00 Ry     beta= 0.70
     Davidson diagonalization with overlap
     ethr =  1.00E-02,  avg # of iterations =  8.8

     Threshold (ethr) on eigenvalues was too large:
     Diagonalizing with lowered threshold

     Davidson diagonalization with overlap
     ethr =  5.47E-04,  avg # of iterations =  1.8

     negative rho (up, down):  1.247E-04 0.000E+00

     total cpu time spent up to now is       21.0 secs

     total energy              =    -907.79774776 Ry
     estimated scf accuracy    <       0.27413123 Ry

     iteration #  2     ecut=    50.00 Ry     beta= 0.70
     Davidson diagonalization with overlap
     ethr =  5.48E-04,  avg # of iterations =  6.5

     negative rho (up, down):  1.299E-04 0.000E+00

     total cpu time spent up to now is       28.8 secs

     total energy              =    -907.51731006 Ry
     estimated scf accuracy    <       3.37913019 Ry

     iteration #  3     ecut=    50.00 Ry     beta= 0.70
     Davidson diagonalization with overlap
     ethr =  5.48E-04,  avg # of iterations =  8.0

     negative rho (up, down):  1.160E-04 0.000E+00

     total cpu time spent up to now is       36.7 secs

     total energy              =    -907.18282172 Ry
     estimated scf accuracy    <      21.14571064 Ry

     iteration #  4     ecut=    50.00 Ry     beta= 0.70
     Davidson diagonalization with overlap
     ethr =  5.48E-04,  avg # of iterations =  6.0

     negative rho (up, down):  1.168E-04 0.000E+00

     total cpu time spent up to now is       44.0 secs

     total energy              =    -907.88039041 Ry
     estimated scf accuracy    <       1.61273688 Ry

     iteration #  5     ecut=    50.00 Ry     beta= 0.70
     Davidson diagonalization with overlap
     ethr =  5.48E-04,  avg # of iterations =  1.5

     negative rho (up, down):  1.196E-04 0.000E+00

     total cpu time spent up to now is       49.9 secs

     total energy              =    -907.89666621 Ry
     estimated scf accuracy    <       0.11485827 Ry

     iteration #  6     ecut=    50.00 Ry     beta= 0.70
     Davidson diagonalization with overlap
     ethr =  2.30E-04,  avg # of iterations =  2.2

     negative rho (up, down):  1.224E-04 0.000E+00

     total cpu time spent up to now is       56.0 secs

     total energy              =    -907.90053807 Ry
     estimated scf accuracy    <       0.05598753 Ry

     iteration #  7     ecut=    50.00 Ry     beta= 0.70
     Davidson diagonalization with overlap
     ethr =  1.12E-04,  avg # of iterations =  3.0

     negative rho (up, down):  1.261E-04 0.000E+00

     total cpu time spent up to now is       62.0 secs

     total energy              =    -907.90053578 Ry
     estimated scf accuracy    <       0.03274672 Ry

     iteration #  8     ecut=    50.00 Ry     beta= 0.70
     Davidson diagonalization with overlap
     ethr =  6.55E-05,  avg # of iterations =  3.8

     negative rho (up, down):  1.275E-04 0.000E+00

     total cpu time spent up to now is       68.1 secs

     total energy              =    -907.90112763 Ry
     estimated scf accuracy    <       0.22314795 Ry

     iteration #  9     ecut=    50.00 Ry     beta= 0.70
     Davidson diagonalization with overlap
     ethr =  6.55E-05,  avg # of iterations =  1.0

     negative rho (up, down):  1.302E-04 0.000E+00

     total cpu time spent up to now is       73.5 secs

     total energy              =    -907.90374464 Ry
     estimated scf accuracy    <       0.03016109 Ry

     iteration # 10     ecut=    50.00 Ry     beta= 0.70
     Davidson diagonalization with overlap
     ethr =  6.03E-05,  avg # of iterations =  1.0

     negative rho (up, down):  1.299E-04 0.000E+00

     total cpu time spent up to now is       79.1 secs

     total energy              =    -907.90250523 Ry
     estimated scf accuracy    <       0.06508665 Ry

     iteration # 11     ecut=    50.00 Ry     beta= 0.70
     Davidson diagonalization with overlap
     ethr =  6.03E-05,  avg # of iterations =  1.0

     negative rho (up, down):  1.306E-04 0.000E+00

     total cpu time spent up to now is       84.5 secs

     total energy              =    -907.90323414 Ry
     estimated scf accuracy    <       0.04641362 Ry

     iteration # 12     ecut=    50.00 Ry     beta= 0.70
     Davidson diagonalization with overlap
     ethr =  6.03E-05,  avg # of iterations =  1.0

     negative rho (up, down):  1.306E-04 0.000E+00

     total cpu time spent up to now is       90.0 secs

     total energy              =    -907.90355711 Ry
     estimated scf accuracy    <       0.00027742 Ry

     iteration # 13     ecut=    50.00 Ry     beta= 0.70
     Davidson diagonalization with overlap
     c_bands:  1 eigenvalues not converged
     ethr =  5.55E-07,  avg # of iterations = 10.5

     negative rho (up, down):  1.307E-04 0.000E+00

     total cpu time spent up to now is       96.8 secs

     total energy              =    -907.90355904 Ry
     estimated scf accuracy    <       0.00000032 Ry

     iteration # 14     ecut=    50.00 Ry     beta= 0.70
     Davidson diagonalization with overlap
     ethr =  6.31E-10,  avg # of iterations =  1.8

     negative rho (up, down):  1.307E-04 0.000E+00

     total cpu time spent up to now is      102.8 secs

     End of self-consistent calculation

          k = 0.0000 0.0000 0.0000 (  7399 PWs)   bands (ev):

   -51.4573 -51.4464 -27.6528 -27.6521 -27.4432 -27.4432 -27.4350 -27.4350
   -10.3646 -10.2972  -9.0683  -8.9694  -2.1272  -1.8223   0.9523   0.9523
     1.0054   1.0054   1.3869   2.0660   2.0660   2.1103   2.1103   2.1235
     3.8434   4.2752   6.3167   6.3167   6.3597   6.3597   6.4941   6.4941
     6.5231   6.5231   8.5428   8.7099   9.0095   9.6177  11.3517  11.5648
    11.6167  11.9746  13.8430  13.8430  13.8695  13.8695  14.0299  15.7585
    15.7901  15.7901  16.0383  16.0383  16.1218  17.1089  18.0440  18.5124
    18.6570  18.6571  18.7876  19.1666

     occupation numbers 
     1.0000   1.0000   1.0000   1.0000   1.0000   1.0000   1.0000   1.0000
     1.0000   1.0000   1.0000   1.0000   1.0000   1.0000   1.0000   1.0000
     1.0000   1.0000   1.0000   1.0000   1.0000   1.0000   1.0000   1.0000
    -0.0018  -0.0000  -0.0000  -0.0000  -0.0000  -0.0000  -0.0000  -0.0000
    -0.0000  -0.0000  -0.0000  -0.0000  -0.0000  -0.0000  -0.0000  -0.0000
    -0.0000  -0.0000  -0.0000  -0.0000  -0.0000  -0.0000  -0.0000  -0.0000
    -0.0000  -0.0000  -0.0000  -0.0000  -0.0000  -0.0000  -0.0000  -0.0000
    -0.0000  -0.0000  -0.0000  -0.0000

          k = 0.0000 0.2887 0.0000 (  7480 PWs)   bands (ev):

   -51.4352 -51.4242 -27.6715 -27.6651 -27.6040 -27.6027 -27.4942 -27.4863
    -9.6078  -9.5472  -8.8196  -8.7481  -1.4745  -1.2407  -0.3341  -0.2911
    -0.0025   0.1866   1.1038   1.1476   1.6739   1.7261   1.9578   2.3178
     3.1131   3.1990   5.8341   6.0833   6.1357   6.2261   6.5792   6.8151
     7.4585   7.5218   9.8959  10.3665  10.8637  11.5547  11.8402  12.3039
    12.4020  12.5030  12.9478  13.1212  14.2699  14.8065  14.9596  15.2075
    15.5318  15.6867  15.8535  16.1246  16.5249  16.5635  16.6833  17.1143
    17.3764  17.6333  17.9704  19.0845

     occupation numbers 
     1.0000   1.0000   1.0000   1.0000   1.0000   1.0000   1.0000   1.0000
     1.0000   1.0000   1.0000   1.0000   1.0000   1.0000   1.0000   1.0000
     1.0000   1.0000   1.0000   1.0000   1.0000   1.0000   1.0000   1.0000
     0.7352   0.4792  -0.0000  -0.0000  -0.0000  -0.0000  -0.0000  -0.0000
    -0.0000  -0.0000  -0.0000  -0.0000  -0.0000  -0.0000  -0.0000  -0.0000
    -0.0000  -0.0000  -0.0000  -0.0000  -0.0000  -0.0000  -0.0000  -0.0000
    -0.0000  -0.0000  -0.0000  -0.0000  -0.0000  -0.0000  -0.0000  -0.0000
    -0.0000  -0.0000  -0.0000  -0.0000

          k = 0.0000-0.5774 0.0000 (  7510 PWs)   bands (ev):

   -51.4127 -51.4017 -27.8909 -27.8863 -27.5546 -27.5528 -27.5447 -27.5370
    -8.6888  -8.6522  -8.5243  -8.4938  -2.0858  -2.0436  -1.1243  -0.9991
    -0.4302  -0.4013   0.4425   0.4896   1.5422   1.8846   2.2988   2.3524
     3.0243   3.1347   6.3736   6.3846   6.7956   6.8162   7.2732   7.5820
     8.0645   8.1864   9.2690   9.7986  11.0325  11.0718  11.4761  11.5650
    12.5115  12.5695  13.1717  13.3919  13.9257  13.9276  14.0483  14.3039
    15.0083  15.0524  16.4054  16.8460  17.6592  17.7151  17.8820  18.6477
    18.8148  19.0694  19.7147  19.9885

     occupation numbers 
     1.0000   1.0000   1.0000   1.0000   1.0000   1.0000   1.0000   1.0000
     1.0000   1.0000   1.0000   1.0000   1.0000   1.0000   1.0000   1.0000
     1.0000   1.0000   1.0000   1.0000   1.0000   1.0000   1.0000   1.0001
     0.9277   0.6746  -0.0000  -0.0000  -0.0000  -0.0000  -0.0000  -0.0000
    -0.0000  -0.0000  -0.0000  -0.0000  -0.0000  -0.0000  -0.0000  -0.0000
    -0.0000  -0.0000  -0.0000  -0.0000  -0.0000  -0.0000  -0.0000  -0.0000
    -0.0000  -0.0000  -0.0000  -0.0000  -0.0000  -0.0000  -0.0000  -0.0000
    -0.0000  -0.0000  -0.0000  -0.0000

          k = 0.2500 0.4330 0.0000 (  7561 PWs)   bands (ev):

   -51.4130 -51.4019 -27.8094 -27.8042 -27.6303 -27.6233 -27.5547 -27.5529
    -8.7065  -8.6656  -8.5040  -8.4702  -1.4651  -1.3846  -1.2431  -1.2079
    -0.1541  -0.0590   0.3605   0.5164   0.6674   0.6873   1.8397   1.9670
     3.2388   3.2611   5.9682   6.1731   6.7979   6.9016   7.0042   7.1215
     8.3427   8.3862  10.6744  10.8419  11.5408  11.5923  11.7513  12.6187
    12.8423  12.9140  13.0656  13.9548  14.3230  14.4324  14.7257  15.2391
    15.2622  15.3457  15.3953  15.6274  16.1084  16.7038  16.7093  17.3261
    17.4512  17.8619  18.0576  18.8088

     occupation numbers 
     1.0000   1.0000   1.0000   1.0000   1.0000   1.0000   1.0000   1.0000
     1.0000   1.0000   1.0000   1.0000   1.0000   1.0000   1.0000   1.0000
     1.0000   1.0000   1.0000   1.0000   1.0000   1.0000   1.0000   1.0000
     0.3578   0.2935  -0.0000  -0.0000  -0.0000  -0.0000  -0.0000  -0.0000
    -0.0000  -0.0000  -0.0000  -0.0000  -0.0000  -0.0000  -0.0000  -0.0000
    -0.0000  -0.0000  -0.0000  -0.0000  -0.0000  -0.0000  -0.0000  -0.0000
    -0.0000  -0.0000  -0.0000  -0.0000  -0.0000  -0.0000  -0.0000  -0.0000
    -0.0000  -0.0000  -0.0000  -0.0000

     the Fermi energy is     3.1923 ev

!    total energy              =    -907.90355905 Ry

     total all-electron energy =    -18448.312581 Ry
     estimated scf accuracy    <          3.9E-09 Ry
     smearing contrib. (-TS)   =      -0.00846997 Ry
     internal energy E=F+TS    =    -907.89508908 Ry

     The total energy is F=E-TS. E is the sum of the following terms:
     one-electron contribution =   -1048.03432152 Ry
     hartree contribution      =     537.53952859 Ry
     xc contribution           =     -65.32841306 Ry
     ewald contribution        =     256.18108273 Ry
     one-center paw contrib.   =    -588.25296582 Ry
      -> PAW hartree energy AE =     100.20029479 Ry
      -> PAW hartree energy PS =     -99.68528212 Ry
      -> PAW xc energy AE      =    -324.72457902 Ry
      -> PAW xc energy PS      =      30.08390418 Ry
      -> total E_H with PAW    =     538.05454126 Ry
      -> total E_XC with PAW   =    -359.96908790 Ry

     convergence has been achieved in  14 iterations

     Writing output data file ./tmp/NbS2_bi.save/

     init_run     :      2.92s CPU      3.04s WALL (       1 calls)
     electrons    :     94.98s CPU     98.76s WALL (       1 calls)

     Called by init_run:
     wfcinit      :      1.53s CPU      1.53s WALL (       1 calls)
     wfcinit:atom :      0.01s CPU      0.01s WALL (       4 calls)
     wfcinit:wfcr :      1.49s CPU      1.49s WALL (       4 calls)
     potinit      :      0.32s CPU      0.34s WALL (       1 calls)
     hinit0       :      0.62s CPU      0.62s WALL (       1 calls)

     Called by electrons:
     c_bands      :     70.23s CPU     70.79s WALL (      15 calls)
     sum_band     :     17.04s CPU     18.91s WALL (      15 calls)
     v_of_rho     :      0.49s CPU      0.50s WALL (      15 calls)
     v_h          :      0.27s CPU      0.27s WALL (      15 calls)
     v_xc         :      0.22s CPU      0.22s WALL (      15 calls)
     newd         :      5.93s CPU      7.31s WALL (      15 calls)
     PAW_pot      :      0.88s CPU      0.88s WALL (      15 calls)
     mix_rho      :      0.55s CPU      0.58s WALL (      15 calls)

     Called by c_bands:
     init_us_2    :      0.26s CPU      0.27s WALL (     124 calls)
     cegterg      :     69.48s CPU     70.01s WALL (      60 calls)

     Called by sum_band:
     sum_band:wei :      0.01s CPU      0.01s WALL (      15 calls)
     sum_band:loo :      8.46s CPU      8.56s WALL (      15 calls)
     sum_band:buf :      0.11s CPU      0.11s WALL (      60 calls)
     sum_band:ini :      0.13s CPU      0.13s WALL (      60 calls)
     sum_band:cal :      2.08s CPU      2.08s WALL (      60 calls)
     sum_band:bec :      0.01s CPU      0.01s WALL (      60 calls)
     addusdens    :      8.19s CPU      9.94s WALL (      15 calls)
     addusd:skk   :      0.05s CPU      0.06s WALL (      30 calls)
     addusd:dgemm :      3.15s CPU      4.68s WALL (      30 calls)
     addusd:qvan2 :      4.53s CPU      4.53s WALL (      30 calls)

     Called by *egterg:
     cdiaghg      :      1.65s CPU      1.65s WALL (     287 calls)
     cegterg:over :      8.51s CPU      8.52s WALL (     231 calls)
     cegterg:upda :      5.00s CPU      5.00s WALL (     231 calls)
     cegterg:last :     12.20s CPU     12.21s WALL (     104 calls)
     h_psi        :     34.32s CPU     34.76s WALL (     295 calls)
     s_psi        :      4.70s CPU      4.74s WALL (     295 calls)
     g_psi        :      0.09s CPU      0.09s WALL (     231 calls)

     Called by h_psi:
     h_psi:calbec :      5.05s CPU      5.07s WALL (     295 calls)
     vloc_psi     :     24.30s CPU     24.70s WALL (     295 calls)
     add_vuspsi   :      4.73s CPU      4.73s WALL (     295 calls)

     General routines
     calbec       :      7.14s CPU      7.15s WALL (     355 calls)
     fft          :      1.17s CPU      1.23s WALL (      89 calls)
     ffts         :      0.08s CPU      0.08s WALL (      30 calls)
     fftw         :     25.83s CPU     26.26s WALL (   20648 calls)
     interpolate  :      0.26s CPU      0.27s WALL (      15 calls)

     Parallel routines
     fft_scatt_xy :      3.64s CPU      3.71s WALL (   20767 calls)
     fft_scatt_yz :      2.70s CPU      2.80s WALL (   20767 calls)

     PAW routines
     PAW_pot      :      0.88s CPU      0.88s WALL (      15 calls)
     PAW_symme    :      0.00s CPU      0.00s WALL (      30 calls)

     PWSCF        :   1m38.95s CPU   1m43.08s WALL


   This run was terminated on:  15:59:55  14Jun2021            

=------------------------------------------------------------------------------=
   JOB DONE.
=------------------------------------------------------------------------------=
