
             +---------------------------------------------------+
             |                                                   |
             |                   WANNIER90                       |
             |                                                   |
             +---------------------------------------------------+
             |                                                   |
             |        Welcome to the Maximally-Localized         |
             |        Generalized Wannier Functions code         |
             |            http://www.wannier.org                 |
             |                                                   |
             |                                                   |
             |  Wannier90 Developer Group:                       |
             |    Giovanni Pizzi    (EPFL)                       |
             |    Valerio Vitale    (Cambridge)                  |
             |    David Vanderbilt  (Rutgers University)         |
             |    Nicola Marzari    (EPFL)                       |
             |    Ivo Souza         (Universidad del Pais Vasco) |
             |    Arash A. Mostofi  (Imperial College London)    |
             |    Jonathan R. Yates (University of Oxford)       |
             |                                                   |
             |  For the full list of Wannier90 3.x authors,      |
             |  please check the code documentation and the      |
             |  README on the GitHub page of the code            |
             |                                                   |
             |                                                   |
             |  Please cite                                      |
             |                                                   |
             |  [ref] "Wannier90 as a community code:            |
             |        new features and applications",            |
             |        G. Pizzi et al., J. Phys. Cond. Matt. 32,  |
             |        165902 (2020).                             |
             |        http://doi.org/10.1088/1361-648X/ab51ff    |
             |                                                   |
             |  in any publications arising from the use of      |
             |  this code. For the method please cite            |
             |                                                   |
             |  [ref] "Maximally Localized Generalised Wannier   |
             |         Functions for Composite Energy Bands"     |
             |         N. Marzari and D. Vanderbilt              |
             |         Phys. Rev. B 56 12847 (1997)              |
             |                                                   |
             |  [ref] "Maximally Localized Wannier Functions     |
             |         for Entangled Energy Bands"               |
             |         I. Souza, N. Marzari and D. Vanderbilt    |
             |         Phys. Rev. B 65 035109 (2001)             |
             |                                                   |
             |                                                   |
             | Copyright (c) 1996-2020                           |
             |        The Wannier90 Developer Group and          |
             |        individual contributors                    |
             |                                                   |
             |      Release: 3.1.0        5th March    2020      |
             |                                                   |
             | This program is free software; you can            |
             | redistribute it and/or modify it under the terms  |
             | of the GNU General Public License as published by |
             | the Free Software Foundation; either version 2 of |
             | the License, or (at your option) any later version|
             |                                                   |
             | This program is distributed in the hope that it   |
             | will be useful, but WITHOUT ANY WARRANTY; without |
             | even the implied warranty of MERCHANTABILITY or   |
             | FITNESS FOR A PARTICULAR PURPOSE. See the GNU     |
             | General Public License for more details.          |
             |                                                   |
             | You should have received a copy of the GNU General|
             | Public License along with this program; if not,   |
             | write to the Free Software Foundation, Inc.,      |
             | 675 Mass Ave, Cambridge, MA 02139, USA.           |
             |                                                   |
             +---------------------------------------------------+
             |    Execution started on 17Jun2021 at 23:22:20     |
             +---------------------------------------------------+
 
 ******************************************************************************
 * -> Using CODATA 2006 constant values                                       *
 *    (http://physics.nist.gov/cuu/Constants/index.html)                      *
 * -> Using Bohr value from CODATA                                            *
 ******************************************************************************
 

 Wannier90 is running in LIBRARY MODE

 Setting up k-point neighbours...


                                    ------
                                    SYSTEM
                                    ------

                              Lattice Vectors (Ang)
                    a_1     3.083000   0.000000   0.000000
                    a_2    -1.541500   2.669956   0.000000
                    a_3     0.000000   0.000000   3.521000

                   Unit Cell Volume:      28.98302  (Ang^3)

                        Reciprocal-Space Vectors (Ang^-1)
                    b_1     2.038010   1.176646  -0.000000
                    b_2     0.000000   2.353292   0.000000
                    b_3     0.000000  -0.000000   1.784489
  
 *----------------------------------------------------------------------------*
 |   Site       Fractional Coordinate          Cartesian Coordinate (Ang)     |
 +----------------------------------------------------------------------------+
 | Mg   1   0.00000   0.00000   0.00000   |    0.00000   0.00000   0.00000    |
 | B    1   0.33333   0.66667   0.50000   |   -0.00000   1.77997   1.76050    |
 | B    2   0.66667   0.33333   0.50000   |    1.54150   0.88999   1.76050    |
 *----------------------------------------------------------------------------*
                                -----------
                                PROJECTIONS
                                -----------
  
 +----------------------------------------------------------------------------+
 |     Frac. Coord.   l mr  r        z-axis               x-axis          Z/a |
 +----------------------------------------------------------------------------+
 |  0.33  0.67  0.50  1  1  1  0.000  0.000  1.000  1.000  0.000  0.000   1.0 |
 |  0.67  0.33  0.50  1  1  1  0.000  0.000  1.000  1.000  0.000  0.000   1.0 |
 |  0.50  1.00  0.50  0  1  1  0.000  0.000  1.000  1.000  0.000  0.000   1.0 |
 |  0.00  0.50  0.50  0  1  1  0.000  0.000  1.000  1.000  0.000  0.000   1.0 |
 |  0.50  0.50  0.50  0  1  1  0.000  0.000  1.000  1.000  0.000  0.000   1.0 |
 +----------------------------------------------------------------------------+
  
                                ------------
                                K-POINT GRID
                                ------------
  
             Grid size =  6 x  6 x  6      Total points =  216
  
 *----------------------------------------------------------------------------*
 | k-point      Fractional Coordinate        Cartesian Coordinate (Ang^-1)    |
 +----------------------------------------------------------------------------+
 |     1    0.00000   0.00000   0.00000   |    0.00000   0.00000   0.00000    |
 |     2    0.00000   0.00000   0.16667   |    0.00000   0.00000   0.29741    |
 |     3    0.00000   0.00000   0.33333   |    0.00000   0.00000   0.59483    |
 |     4    0.00000   0.00000   0.50000   |    0.00000   0.00000   0.89224    |
 |     5    0.00000   0.00000   0.66667   |    0.00000   0.00000   1.18966    |
 |     6    0.00000   0.00000   0.83333   |    0.00000   0.00000   1.48707    |
 |     7    0.00000   0.16667   0.00000   |    0.00000   0.39222   0.00000    |
 |     8    0.00000   0.16667   0.16667   |    0.00000   0.39222   0.29741    |
 |     9    0.00000   0.16667   0.33333   |    0.00000   0.39222   0.59483    |
 |    10    0.00000   0.16667   0.50000   |    0.00000   0.39222   0.89224    |
 |    11    0.00000   0.16667   0.66667   |    0.00000   0.39222   1.18966    |
 |    12    0.00000   0.16667   0.83333   |    0.00000   0.39222   1.48707    |
 |    13    0.00000   0.33333   0.00000   |    0.00000   0.78443   0.00000    |
 |    14    0.00000   0.33333   0.16667   |    0.00000   0.78443   0.29741    |
 |    15    0.00000   0.33333   0.33333   |    0.00000   0.78443   0.59483    |
 |    16    0.00000   0.33333   0.50000   |    0.00000   0.78443   0.89224    |
 |    17    0.00000   0.33333   0.66667   |    0.00000   0.78443   1.18966    |
 |    18    0.00000   0.33333   0.83333   |    0.00000   0.78443   1.48707    |
 |    19    0.00000   0.50000   0.00000   |    0.00000   1.17665   0.00000    |
 |    20    0.00000   0.50000   0.16667   |    0.00000   1.17665   0.29741    |
 |    21    0.00000   0.50000   0.33333   |    0.00000   1.17665   0.59483    |
 |    22    0.00000   0.50000   0.50000   |    0.00000   1.17665   0.89224    |
 |    23    0.00000   0.50000   0.66667   |    0.00000   1.17665   1.18966    |
 |    24    0.00000   0.50000   0.83333   |    0.00000   1.17665   1.48707    |
 |    25    0.00000   0.66667   0.00000   |    0.00000   1.56886   0.00000    |
 |    26    0.00000   0.66667   0.16667   |    0.00000   1.56886   0.29741    |
 |    27    0.00000   0.66667   0.33333   |    0.00000   1.56886   0.59483    |
 |    28    0.00000   0.66667   0.50000   |    0.00000   1.56886   0.89224    |
 |    29    0.00000   0.66667   0.66667   |    0.00000   1.56886   1.18966    |
 |    30    0.00000   0.66667   0.83333   |    0.00000   1.56886   1.48707    |
 |    31    0.00000   0.83333   0.00000   |    0.00000   1.96108   0.00000    |
 |    32    0.00000   0.83333   0.16667   |    0.00000   1.96108   0.29741    |
 |    33    0.00000   0.83333   0.33333   |    0.00000   1.96108   0.59483    |
 |    34    0.00000   0.83333   0.50000   |    0.00000   1.96108   0.89224    |
 |    35    0.00000   0.83333   0.66667   |    0.00000   1.96108   1.18966    |
 |    36    0.00000   0.83333   0.83333   |    0.00000   1.96108   1.48707    |
 |    37    0.16667   0.00000   0.00000   |    0.33967   0.19611   0.00000    |
 |    38    0.16667   0.00000   0.16667   |    0.33967   0.19611   0.29741    |
 |    39    0.16667   0.00000   0.33333   |    0.33967   0.19611   0.59483    |
 |    40    0.16667   0.00000   0.50000   |    0.33967   0.19611   0.89224    |
 |    41    0.16667   0.00000   0.66667   |    0.33967   0.19611   1.18966    |
 |    42    0.16667   0.00000   0.83333   |    0.33967   0.19611   1.48707    |
 |    43    0.16667   0.16667   0.00000   |    0.33967   0.58832   0.00000    |
 |    44    0.16667   0.16667   0.16667   |    0.33967   0.58832   0.29741    |
 |    45    0.16667   0.16667   0.33333   |    0.33967   0.58832   0.59483    |
 |    46    0.16667   0.16667   0.50000   |    0.33967   0.58832   0.89224    |
 |    47    0.16667   0.16667   0.66667   |    0.33967   0.58832   1.18966    |
 |    48    0.16667   0.16667   0.83333   |    0.33967   0.58832   1.48707    |
 |    49    0.16667   0.33333   0.00000   |    0.33967   0.98054   0.00000    |
 |    50    0.16667   0.33333   0.16667   |    0.33967   0.98054   0.29741    |
 |    51    0.16667   0.33333   0.33333   |    0.33967   0.98054   0.59483    |
 |    52    0.16667   0.33333   0.50000   |    0.33967   0.98054   0.89224    |
 |    53    0.16667   0.33333   0.66667   |    0.33967   0.98054   1.18966    |
 |    54    0.16667   0.33333   0.83333   |    0.33967   0.98054   1.48707    |
 |    55    0.16667   0.50000   0.00000   |    0.33967   1.37275   0.00000    |
 |    56    0.16667   0.50000   0.16667   |    0.33967   1.37275   0.29741    |
 |    57    0.16667   0.50000   0.33333   |    0.33967   1.37275   0.59483    |
 |    58    0.16667   0.50000   0.50000   |    0.33967   1.37275   0.89224    |
 |    59    0.16667   0.50000   0.66667   |    0.33967   1.37275   1.18966    |
 |    60    0.16667   0.50000   0.83333   |    0.33967   1.37275   1.48707    |
 |    61    0.16667   0.66667   0.00000   |    0.33967   1.76497   0.00000    |
 |    62    0.16667   0.66667   0.16667   |    0.33967   1.76497   0.29741    |
 |    63    0.16667   0.66667   0.33333   |    0.33967   1.76497   0.59483    |
 |    64    0.16667   0.66667   0.50000   |    0.33967   1.76497   0.89224    |
 |    65    0.16667   0.66667   0.66667   |    0.33967   1.76497   1.18966    |
 |    66    0.16667   0.66667   0.83333   |    0.33967   1.76497   1.48707    |
 |    67    0.16667   0.83333   0.00000   |    0.33967   2.15718   0.00000    |
 |    68    0.16667   0.83333   0.16667   |    0.33967   2.15718   0.29741    |
 |    69    0.16667   0.83333   0.33333   |    0.33967   2.15718   0.59483    |
 |    70    0.16667   0.83333   0.50000   |    0.33967   2.15718   0.89224    |
 |    71    0.16667   0.83333   0.66667   |    0.33967   2.15718   1.18966    |
 |    72    0.16667   0.83333   0.83333   |    0.33967   2.15718   1.48707    |
 |    73    0.33333   0.00000   0.00000   |    0.67934   0.39222   0.00000    |
 |    74    0.33333   0.00000   0.16667   |    0.67934   0.39222   0.29741    |
 |    75    0.33333   0.00000   0.33333   |    0.67934   0.39222   0.59483    |
 |    76    0.33333   0.00000   0.50000   |    0.67934   0.39222   0.89224    |
 |    77    0.33333   0.00000   0.66667   |    0.67934   0.39222   1.18966    |
 |    78    0.33333   0.00000   0.83333   |    0.67934   0.39222   1.48707    |
 |    79    0.33333   0.16667   0.00000   |    0.67934   0.78443   0.00000    |
 |    80    0.33333   0.16667   0.16667   |    0.67934   0.78443   0.29741    |
 |    81    0.33333   0.16667   0.33333   |    0.67934   0.78443   0.59483    |
 |    82    0.33333   0.16667   0.50000   |    0.67934   0.78443   0.89224    |
 |    83    0.33333   0.16667   0.66667   |    0.67934   0.78443   1.18966    |
 |    84    0.33333   0.16667   0.83333   |    0.67934   0.78443   1.48707    |
 |    85    0.33333   0.33333   0.00000   |    0.67934   1.17665   0.00000    |
 |    86    0.33333   0.33333   0.16667   |    0.67934   1.17665   0.29741    |
 |    87    0.33333   0.33333   0.33333   |    0.67934   1.17665   0.59483    |
 |    88    0.33333   0.33333   0.50000   |    0.67934   1.17665   0.89224    |
 |    89    0.33333   0.33333   0.66667   |    0.67934   1.17665   1.18966    |
 |    90    0.33333   0.33333   0.83333   |    0.67934   1.17665   1.48707    |
 |    91    0.33333   0.50000   0.00000   |    0.67934   1.56886   0.00000    |
 |    92    0.33333   0.50000   0.16667   |    0.67934   1.56886   0.29741    |
 |    93    0.33333   0.50000   0.33333   |    0.67934   1.56886   0.59483    |
 |    94    0.33333   0.50000   0.50000   |    0.67934   1.56886   0.89224    |
 |    95    0.33333   0.50000   0.66667   |    0.67934   1.56886   1.18966    |
 |    96    0.33333   0.50000   0.83333   |    0.67934   1.56886   1.48707    |
 |    97    0.33333   0.66667   0.00000   |    0.67934   1.96108   0.00000    |
 |    98    0.33333   0.66667   0.16667   |    0.67934   1.96108   0.29741    |
 |    99    0.33333   0.66667   0.33333   |    0.67934   1.96108   0.59483    |
 |   100    0.33333   0.66667   0.50000   |    0.67934   1.96108   0.89224    |
 |   101    0.33333   0.66667   0.66667   |    0.67934   1.96108   1.18966    |
 |   102    0.33333   0.66667   0.83333   |    0.67934   1.96108   1.48707    |
 |   103    0.33333   0.83333   0.00000   |    0.67934   2.35329   0.00000    |
 |   104    0.33333   0.83333   0.16667   |    0.67934   2.35329   0.29741    |
 |   105    0.33333   0.83333   0.33333   |    0.67934   2.35329   0.59483    |
 |   106    0.33333   0.83333   0.50000   |    0.67934   2.35329   0.89224    |
 |   107    0.33333   0.83333   0.66667   |    0.67934   2.35329   1.18966    |
 |   108    0.33333   0.83333   0.83333   |    0.67934   2.35329   1.48707    |
 |   109    0.50000   0.00000   0.00000   |    1.01901   0.58832   0.00000    |
 |   110    0.50000   0.00000   0.16667   |    1.01901   0.58832   0.29741    |
 |   111    0.50000   0.00000   0.33333   |    1.01901   0.58832   0.59483    |
 |   112    0.50000   0.00000   0.50000   |    1.01901   0.58832   0.89224    |
 |   113    0.50000   0.00000   0.66667   |    1.01901   0.58832   1.18966    |
 |   114    0.50000   0.00000   0.83333   |    1.01901   0.58832   1.48707    |
 |   115    0.50000   0.16667   0.00000   |    1.01901   0.98054   0.00000    |
 |   116    0.50000   0.16667   0.16667   |    1.01901   0.98054   0.29741    |
 |   117    0.50000   0.16667   0.33333   |    1.01901   0.98054   0.59483    |
 |   118    0.50000   0.16667   0.50000   |    1.01901   0.98054   0.89224    |
 |   119    0.50000   0.16667   0.66667   |    1.01901   0.98054   1.18966    |
 |   120    0.50000   0.16667   0.83333   |    1.01901   0.98054   1.48707    |
 |   121    0.50000   0.33333   0.00000   |    1.01901   1.37275   0.00000    |
 |   122    0.50000   0.33333   0.16667   |    1.01901   1.37275   0.29741    |
 |   123    0.50000   0.33333   0.33333   |    1.01901   1.37275   0.59483    |
 |   124    0.50000   0.33333   0.50000   |    1.01901   1.37275   0.89224    |
 |   125    0.50000   0.33333   0.66667   |    1.01901   1.37275   1.18966    |
 |   126    0.50000   0.33333   0.83333   |    1.01901   1.37275   1.48707    |
 |   127    0.50000   0.50000   0.00000   |    1.01901   1.76497   0.00000    |
 |   128    0.50000   0.50000   0.16667   |    1.01901   1.76497   0.29741    |
 |   129    0.50000   0.50000   0.33333   |    1.01901   1.76497   0.59483    |
 |   130    0.50000   0.50000   0.50000   |    1.01901   1.76497   0.89224    |
 |   131    0.50000   0.50000   0.66667   |    1.01901   1.76497   1.18966    |
 |   132    0.50000   0.50000   0.83333   |    1.01901   1.76497   1.48707    |
 |   133    0.50000   0.66667   0.00000   |    1.01901   2.15718   0.00000    |
 |   134    0.50000   0.66667   0.16667   |    1.01901   2.15718   0.29741    |
 |   135    0.50000   0.66667   0.33333   |    1.01901   2.15718   0.59483    |
 |   136    0.50000   0.66667   0.50000   |    1.01901   2.15718   0.89224    |
 |   137    0.50000   0.66667   0.66667   |    1.01901   2.15718   1.18966    |
 |   138    0.50000   0.66667   0.83333   |    1.01901   2.15718   1.48707    |
 |   139    0.50000   0.83333   0.00000   |    1.01901   2.54940   0.00000    |
 |   140    0.50000   0.83333   0.16667   |    1.01901   2.54940   0.29741    |
 |   141    0.50000   0.83333   0.33333   |    1.01901   2.54940   0.59483    |
 |   142    0.50000   0.83333   0.50000   |    1.01901   2.54940   0.89224    |
 |   143    0.50000   0.83333   0.66667   |    1.01901   2.54940   1.18966    |
 |   144    0.50000   0.83333   0.83333   |    1.01901   2.54940   1.48707    |
 |   145    0.66667   0.00000   0.00000   |    1.35867   0.78443   0.00000    |
 |   146    0.66667   0.00000   0.16667   |    1.35867   0.78443   0.29741    |
 |   147    0.66667   0.00000   0.33333   |    1.35867   0.78443   0.59483    |
 |   148    0.66667   0.00000   0.50000   |    1.35867   0.78443   0.89224    |
 |   149    0.66667   0.00000   0.66667   |    1.35867   0.78443   1.18966    |
 |   150    0.66667   0.00000   0.83333   |    1.35867   0.78443   1.48707    |
 |   151    0.66667   0.16667   0.00000   |    1.35867   1.17665   0.00000    |
 |   152    0.66667   0.16667   0.16667   |    1.35867   1.17665   0.29741    |
 |   153    0.66667   0.16667   0.33333   |    1.35867   1.17665   0.59483    |
 |   154    0.66667   0.16667   0.50000   |    1.35867   1.17665   0.89224    |
 |   155    0.66667   0.16667   0.66667   |    1.35867   1.17665   1.18966    |
 |   156    0.66667   0.16667   0.83333   |    1.35867   1.17665   1.48707    |
 |   157    0.66667   0.33333   0.00000   |    1.35867   1.56886   0.00000    |
 |   158    0.66667   0.33333   0.16667   |    1.35867   1.56886   0.29741    |
 |   159    0.66667   0.33333   0.33333   |    1.35867   1.56886   0.59483    |
 |   160    0.66667   0.33333   0.50000   |    1.35867   1.56886   0.89224    |
 |   161    0.66667   0.33333   0.66667   |    1.35867   1.56886   1.18966    |
 |   162    0.66667   0.33333   0.83333   |    1.35867   1.56886   1.48707    |
 |   163    0.66667   0.50000   0.00000   |    1.35867   1.96108   0.00000    |
 |   164    0.66667   0.50000   0.16667   |    1.35867   1.96108   0.29741    |
 |   165    0.66667   0.50000   0.33333   |    1.35867   1.96108   0.59483    |
 |   166    0.66667   0.50000   0.50000   |    1.35867   1.96108   0.89224    |
 |   167    0.66667   0.50000   0.66667   |    1.35867   1.96108   1.18966    |
 |   168    0.66667   0.50000   0.83333   |    1.35867   1.96108   1.48707    |
 |   169    0.66667   0.66667   0.00000   |    1.35867   2.35329   0.00000    |
 |   170    0.66667   0.66667   0.16667   |    1.35867   2.35329   0.29741    |
 |   171    0.66667   0.66667   0.33333   |    1.35867   2.35329   0.59483    |
 |   172    0.66667   0.66667   0.50000   |    1.35867   2.35329   0.89224    |
 |   173    0.66667   0.66667   0.66667   |    1.35867   2.35329   1.18966    |
 |   174    0.66667   0.66667   0.83333   |    1.35867   2.35329   1.48707    |
 |   175    0.66667   0.83333   0.00000   |    1.35867   2.74551   0.00000    |
 |   176    0.66667   0.83333   0.16667   |    1.35867   2.74551   0.29741    |
 |   177    0.66667   0.83333   0.33333   |    1.35867   2.74551   0.59483    |
 |   178    0.66667   0.83333   0.50000   |    1.35867   2.74551   0.89224    |
 |   179    0.66667   0.83333   0.66667   |    1.35867   2.74551   1.18966    |
 |   180    0.66667   0.83333   0.83333   |    1.35867   2.74551   1.48707    |
 |   181    0.83333   0.00000   0.00000   |    1.69834   0.98054   0.00000    |
 |   182    0.83333   0.00000   0.16667   |    1.69834   0.98054   0.29741    |
 |   183    0.83333   0.00000   0.33333   |    1.69834   0.98054   0.59483    |
 |   184    0.83333   0.00000   0.50000   |    1.69834   0.98054   0.89224    |
 |   185    0.83333   0.00000   0.66667   |    1.69834   0.98054   1.18966    |
 |   186    0.83333   0.00000   0.83333   |    1.69834   0.98054   1.48707    |
 |   187    0.83333   0.16667   0.00000   |    1.69834   1.37275   0.00000    |
 |   188    0.83333   0.16667   0.16667   |    1.69834   1.37275   0.29741    |
 |   189    0.83333   0.16667   0.33333   |    1.69834   1.37275   0.59483    |
 |   190    0.83333   0.16667   0.50000   |    1.69834   1.37275   0.89224    |
 |   191    0.83333   0.16667   0.66667   |    1.69834   1.37275   1.18966    |
 |   192    0.83333   0.16667   0.83333   |    1.69834   1.37275   1.48707    |
 |   193    0.83333   0.33333   0.00000   |    1.69834   1.76497   0.00000    |
 |   194    0.83333   0.33333   0.16667   |    1.69834   1.76497   0.29741    |
 |   195    0.83333   0.33333   0.33333   |    1.69834   1.76497   0.59483    |
 |   196    0.83333   0.33333   0.50000   |    1.69834   1.76497   0.89224    |
 |   197    0.83333   0.33333   0.66667   |    1.69834   1.76497   1.18966    |
 |   198    0.83333   0.33333   0.83333   |    1.69834   1.76497   1.48707    |
 |   199    0.83333   0.50000   0.00000   |    1.69834   2.15718   0.00000    |
 |   200    0.83333   0.50000   0.16667   |    1.69834   2.15718   0.29741    |
 |   201    0.83333   0.50000   0.33333   |    1.69834   2.15718   0.59483    |
 |   202    0.83333   0.50000   0.50000   |    1.69834   2.15718   0.89224    |
 |   203    0.83333   0.50000   0.66667   |    1.69834   2.15718   1.18966    |
 |   204    0.83333   0.50000   0.83333   |    1.69834   2.15718   1.48707    |
 |   205    0.83333   0.66667   0.00000   |    1.69834   2.54940   0.00000    |
 |   206    0.83333   0.66667   0.16667   |    1.69834   2.54940   0.29741    |
 |   207    0.83333   0.66667   0.33333   |    1.69834   2.54940   0.59483    |
 |   208    0.83333   0.66667   0.50000   |    1.69834   2.54940   0.89224    |
 |   209    0.83333   0.66667   0.66667   |    1.69834   2.54940   1.18966    |
 |   210    0.83333   0.66667   0.83333   |    1.69834   2.54940   1.48707    |
 |   211    0.83333   0.83333   0.00000   |    1.69834   2.94161   0.00000    |
 |   212    0.83333   0.83333   0.16667   |    1.69834   2.94161   0.29741    |
 |   213    0.83333   0.83333   0.33333   |    1.69834   2.94161   0.59483    |
 |   214    0.83333   0.83333   0.50000   |    1.69834   2.94161   0.89224    |
 |   215    0.83333   0.83333   0.66667   |    1.69834   2.94161   1.18966    |
 |   216    0.83333   0.83333   0.83333   |    1.69834   2.94161   1.48707    |
 *----------------------------------------------------------------------------*
  
  
 *---------------------------------- MAIN ------------------------------------*
 |  Number of Wannier Functions               :                 5             |
 |  Number of Objective Wannier Functions     :                 5             |
 |  Number of input Bloch states              :                 8             |
 |  Output verbosity (1=low, 5=high)          :                 2             |
 |  Timing Level (1=low, 5=high)              :                 1             |
 |  Optimisation (0=memory, 3=speed)          :                 3             |
 |  Length Unit                               :               Ang             |
 |  Post-processing setup (write *.nnkp)      :                 T             |
 |  Using Gamma-only branch of algorithms     :                 F             |
 *----------------------------------------------------------------------------*
 *------------------------------- WANNIERISE ---------------------------------*
 |  Total number of iterations                :               500             |
 |  Number of CG steps before reset           :                 5             |
 |  Trial step length for line search         :             2.000             |
 |  Convergence tolerence                     :         0.100E-09             |
 |  Convergence window                        :                -1             |
 |  Iterations between writing output         :                 1             |
 |  Iterations between backing up to disk     :               100             |
 |  Write r^2_nm to file                      :                 F             |
 |  Write xyz WF centres to file              :                 F             |
 |  Write on-site energies <0n|H|0n> to file  :                 F             |
 |  Use guiding centre to control phases      :                 F             |
 |  Use phases for initial projections        :                 F             |
 *----------------------------------------------------------------------------*
 *------------------------------- DISENTANGLE --------------------------------*
 |  Using band disentanglement                :                 T             |
 |  Total number of iterations                :               200             |
 |  Mixing ratio                              :             0.500             |
 |  Convergence tolerence                     :         1.000E-10             |
 |  Convergence window                        :                 3             |
 *----------------------------------------------------------------------------*
 Time to read parameters        0.002 (sec)

 *---------------------------------- K-MESH ----------------------------------*
 +----------------------------------------------------------------------------+
 |                    Distance to Nearest-Neighbour Shells                    |
 |                    ------------------------------------                    |
 |          Shell             Distance (Ang^-1)          Multiplicity         |
 |          -----             -----------------          ------------         |
 |             1                   0.297415                      2            |
 |             2                   0.392215                      6            |
 |             3                   0.492228                     12            |
 |             4                   0.594830                      2            |
 |             5                   0.679337                      6            |
 |             6                   0.712499                     12            |
 |             7                   0.741589                     12            |
 |             8                   0.784431                      6            |
 |             9                   0.838920                     12            |
 |            10                   0.892244                      2            |
 |            11                   0.902951                     12            |
 |            12                   0.974645                     12            |
 |            13                   0.984456                     12            |
 |            14                   1.037704                     12            |
 |            15                   1.079484                     24            |
 |            16                   1.121427                     12            |
 |            17                   1.176646                      6            |
 |            18                   1.188037                     12            |
 |            19                   1.189659                      2            |
 |            20                   1.196099                     24            |
 |            21                   1.213652                     12            |
 |            22                   1.252646                     12            |
 |            23                   1.318453                     12            |
 |            24                   1.358674                      6            |
 |            25                   1.368550                     24            |
 |            26                   1.369959                     12            |
 |            27                   1.390845                     12            |
 |            28                   1.414152                     12            |
 |            29                   1.424998                     12            |
 |            30                   1.445089                     24            |
 |            31                   1.476684                     12            |
 |            32                   1.483178                     12            |
 |            33                   1.487074                      2            |
 |            34                   1.534161                     24            |
 |            35                   1.537928                     12            |
 |            36                   1.568861                      6            |
 +----------------------------------------------------------------------------+
 | The b-vectors are chosen automatically                                     |
 | Shell:  1 w_b    5.6525542      (Ang^2)                                    |
 | Shell:  1 w_b    5.6525542      (Ang^2)                                    |
 | Shell:  2 w_b    2.1668545      (Ang^2)                                    |
 | The following shells are used:   1,  2                                     |
 +----------------------------------------------------------------------------+
 |                        Shell   # Nearest-Neighbours                        |
 |                        -----   --------------------                        |
 |                          1               2                                 |
 |                          2               6                                 |
 +----------------------------------------------------------------------------+
 | Completeness relation is fully satisfied [Eq. (B1), PRB 56, 12847 (1997)]  |
 +----------------------------------------------------------------------------+
 |                  b_k Vectors (Ang^-1) and Weights (Ang^2)                  |
 |                  ----------------------------------------                  |
 |            No.         b_k(x)      b_k(y)      b_k(z)        w_b           |
 |            ---        --------------------------------     --------        |
 |             1         0.000000    0.000000    0.297415     5.652554        |
 |             2         0.000000    0.000000   -0.297415     5.652554        |
 |             3         0.000000    0.392215    0.000000     2.166854        |
 |             4         0.339668    0.196108    0.000000     2.166854        |
 |             5         0.000000   -0.392215    0.000000     2.166854        |
 |             6         0.339668   -0.196108    0.000000     2.166854        |
 |             7        -0.339668   -0.196108    0.000000     2.166854        |
 |             8        -0.339668    0.196108    0.000000     2.166854        |
 +----------------------------------------------------------------------------+
 |                           b_k Directions (Ang^-1)                          |
 |                           -----------------------                          |
 |            No.           x           y           z                         |
 |            ---        --------------------------------                     |
 |             1         0.000000    0.000000    0.297415                     |
 |             2         0.000000    0.392215    0.000000                     |
 |             3         0.339668    0.196108    0.000000                     |
 |             4         0.339668   -0.196108    0.000000                     |
 +----------------------------------------------------------------------------+
  
 Time to write kmesh            2.144 (sec)

 MgB2.nnkp written.
 Time to write kmesh            2.144 (sec)

 Finished setting up k-point neighbours.

 Exiting wannier_setup in wannier90 23:22:22 

 Resuming Wannier90 at 23:22:47 


                                    ------
                                    SYSTEM
                                    ------

                              Lattice Vectors (Ang)
                    a_1     3.083000   0.000000   0.000000
                    a_2    -1.541500   2.669956   0.000000
                    a_3     0.000000   0.000000   3.521000

                   Unit Cell Volume:      28.98302  (Ang^3)

                        Reciprocal-Space Vectors (Ang^-1)
                    b_1     2.038010   1.176646  -0.000000
                    b_2     0.000000   2.353292   0.000000
                    b_3     0.000000  -0.000000   1.784489
  
 *----------------------------------------------------------------------------*
 |   Site       Fractional Coordinate          Cartesian Coordinate (Ang)     |
 +----------------------------------------------------------------------------+
 | Mg   1   0.00000   0.00000   0.00000   |    0.00000   0.00000   0.00000    |
 | B    1   0.33333   0.66667   0.50000   |   -0.00000   1.77997   1.76050    |
 | B    2   0.66667   0.33333   0.50000   |    1.54150   0.88999   1.76050    |
 *----------------------------------------------------------------------------*
                                -----------
                                PROJECTIONS
                                -----------
  
 +----------------------------------------------------------------------------+
 |     Frac. Coord.   l mr  r        z-axis               x-axis          Z/a |
 +----------------------------------------------------------------------------+
 |  0.33  0.67  0.50  1  1  1  0.000  0.000  1.000  1.000  0.000  0.000   1.0 |
 |  0.67  0.33  0.50  1  1  1  0.000  0.000  1.000  1.000  0.000  0.000   1.0 |
 |  0.50  1.00  0.50  0  1  1  0.000  0.000  1.000  1.000  0.000  0.000   1.0 |
 |  0.00  0.50  0.50  0  1  1  0.000  0.000  1.000  1.000  0.000  0.000   1.0 |
 |  0.50  0.50  0.50  0  1  1  0.000  0.000  1.000  1.000  0.000  0.000   1.0 |
 +----------------------------------------------------------------------------+
  
                                ------------
                                K-POINT GRID
                                ------------
  
             Grid size =  6 x  6 x  6      Total points =  216
  
 *----------------------------------------------------------------------------*
 | k-point      Fractional Coordinate        Cartesian Coordinate (Ang^-1)    |
 +----------------------------------------------------------------------------+
 |     1    0.00000   0.00000   0.00000   |    0.00000   0.00000   0.00000    |
 |     2    0.00000   0.00000   0.16667   |    0.00000   0.00000   0.29741    |
 |     3    0.00000   0.00000   0.33333   |    0.00000   0.00000   0.59483    |
 |     4    0.00000   0.00000   0.50000   |    0.00000   0.00000   0.89224    |
 |     5    0.00000   0.00000   0.66667   |    0.00000   0.00000   1.18966    |
 |     6    0.00000   0.00000   0.83333   |    0.00000   0.00000   1.48707    |
 |     7    0.00000   0.16667   0.00000   |    0.00000   0.39222   0.00000    |
 |     8    0.00000   0.16667   0.16667   |    0.00000   0.39222   0.29741    |
 |     9    0.00000   0.16667   0.33333   |    0.00000   0.39222   0.59483    |
 |    10    0.00000   0.16667   0.50000   |    0.00000   0.39222   0.89224    |
 |    11    0.00000   0.16667   0.66667   |    0.00000   0.39222   1.18966    |
 |    12    0.00000   0.16667   0.83333   |    0.00000   0.39222   1.48707    |
 |    13    0.00000   0.33333   0.00000   |    0.00000   0.78443   0.00000    |
 |    14    0.00000   0.33333   0.16667   |    0.00000   0.78443   0.29741    |
 |    15    0.00000   0.33333   0.33333   |    0.00000   0.78443   0.59483    |
 |    16    0.00000   0.33333   0.50000   |    0.00000   0.78443   0.89224    |
 |    17    0.00000   0.33333   0.66667   |    0.00000   0.78443   1.18966    |
 |    18    0.00000   0.33333   0.83333   |    0.00000   0.78443   1.48707    |
 |    19    0.00000   0.50000   0.00000   |    0.00000   1.17665   0.00000    |
 |    20    0.00000   0.50000   0.16667   |    0.00000   1.17665   0.29741    |
 |    21    0.00000   0.50000   0.33333   |    0.00000   1.17665   0.59483    |
 |    22    0.00000   0.50000   0.50000   |    0.00000   1.17665   0.89224    |
 |    23    0.00000   0.50000   0.66667   |    0.00000   1.17665   1.18966    |
 |    24    0.00000   0.50000   0.83333   |    0.00000   1.17665   1.48707    |
 |    25    0.00000   0.66667   0.00000   |    0.00000   1.56886   0.00000    |
 |    26    0.00000   0.66667   0.16667   |    0.00000   1.56886   0.29741    |
 |    27    0.00000   0.66667   0.33333   |    0.00000   1.56886   0.59483    |
 |    28    0.00000   0.66667   0.50000   |    0.00000   1.56886   0.89224    |
 |    29    0.00000   0.66667   0.66667   |    0.00000   1.56886   1.18966    |
 |    30    0.00000   0.66667   0.83333   |    0.00000   1.56886   1.48707    |
 |    31    0.00000   0.83333   0.00000   |    0.00000   1.96108   0.00000    |
 |    32    0.00000   0.83333   0.16667   |    0.00000   1.96108   0.29741    |
 |    33    0.00000   0.83333   0.33333   |    0.00000   1.96108   0.59483    |
 |    34    0.00000   0.83333   0.50000   |    0.00000   1.96108   0.89224    |
 |    35    0.00000   0.83333   0.66667   |    0.00000   1.96108   1.18966    |
 |    36    0.00000   0.83333   0.83333   |    0.00000   1.96108   1.48707    |
 |    37    0.16667   0.00000   0.00000   |    0.33967   0.19611   0.00000    |
 |    38    0.16667   0.00000   0.16667   |    0.33967   0.19611   0.29741    |
 |    39    0.16667   0.00000   0.33333   |    0.33967   0.19611   0.59483    |
 |    40    0.16667   0.00000   0.50000   |    0.33967   0.19611   0.89224    |
 |    41    0.16667   0.00000   0.66667   |    0.33967   0.19611   1.18966    |
 |    42    0.16667   0.00000   0.83333   |    0.33967   0.19611   1.48707    |
 |    43    0.16667   0.16667   0.00000   |    0.33967   0.58832   0.00000    |
 |    44    0.16667   0.16667   0.16667   |    0.33967   0.58832   0.29741    |
 |    45    0.16667   0.16667   0.33333   |    0.33967   0.58832   0.59483    |
 |    46    0.16667   0.16667   0.50000   |    0.33967   0.58832   0.89224    |
 |    47    0.16667   0.16667   0.66667   |    0.33967   0.58832   1.18966    |
 |    48    0.16667   0.16667   0.83333   |    0.33967   0.58832   1.48707    |
 |    49    0.16667   0.33333   0.00000   |    0.33967   0.98054   0.00000    |
 |    50    0.16667   0.33333   0.16667   |    0.33967   0.98054   0.29741    |
 |    51    0.16667   0.33333   0.33333   |    0.33967   0.98054   0.59483    |
 |    52    0.16667   0.33333   0.50000   |    0.33967   0.98054   0.89224    |
 |    53    0.16667   0.33333   0.66667   |    0.33967   0.98054   1.18966    |
 |    54    0.16667   0.33333   0.83333   |    0.33967   0.98054   1.48707    |
 |    55    0.16667   0.50000   0.00000   |    0.33967   1.37275   0.00000    |
 |    56    0.16667   0.50000   0.16667   |    0.33967   1.37275   0.29741    |
 |    57    0.16667   0.50000   0.33333   |    0.33967   1.37275   0.59483    |
 |    58    0.16667   0.50000   0.50000   |    0.33967   1.37275   0.89224    |
 |    59    0.16667   0.50000   0.66667   |    0.33967   1.37275   1.18966    |
 |    60    0.16667   0.50000   0.83333   |    0.33967   1.37275   1.48707    |
 |    61    0.16667   0.66667   0.00000   |    0.33967   1.76497   0.00000    |
 |    62    0.16667   0.66667   0.16667   |    0.33967   1.76497   0.29741    |
 |    63    0.16667   0.66667   0.33333   |    0.33967   1.76497   0.59483    |
 |    64    0.16667   0.66667   0.50000   |    0.33967   1.76497   0.89224    |
 |    65    0.16667   0.66667   0.66667   |    0.33967   1.76497   1.18966    |
 |    66    0.16667   0.66667   0.83333   |    0.33967   1.76497   1.48707    |
 |    67    0.16667   0.83333   0.00000   |    0.33967   2.15718   0.00000    |
 |    68    0.16667   0.83333   0.16667   |    0.33967   2.15718   0.29741    |
 |    69    0.16667   0.83333   0.33333   |    0.33967   2.15718   0.59483    |
 |    70    0.16667   0.83333   0.50000   |    0.33967   2.15718   0.89224    |
 |    71    0.16667   0.83333   0.66667   |    0.33967   2.15718   1.18966    |
 |    72    0.16667   0.83333   0.83333   |    0.33967   2.15718   1.48707    |
 |    73    0.33333   0.00000   0.00000   |    0.67934   0.39222   0.00000    |
 |    74    0.33333   0.00000   0.16667   |    0.67934   0.39222   0.29741    |
 |    75    0.33333   0.00000   0.33333   |    0.67934   0.39222   0.59483    |
 |    76    0.33333   0.00000   0.50000   |    0.67934   0.39222   0.89224    |
 |    77    0.33333   0.00000   0.66667   |    0.67934   0.39222   1.18966    |
 |    78    0.33333   0.00000   0.83333   |    0.67934   0.39222   1.48707    |
 |    79    0.33333   0.16667   0.00000   |    0.67934   0.78443   0.00000    |
 |    80    0.33333   0.16667   0.16667   |    0.67934   0.78443   0.29741    |
 |    81    0.33333   0.16667   0.33333   |    0.67934   0.78443   0.59483    |
 |    82    0.33333   0.16667   0.50000   |    0.67934   0.78443   0.89224    |
 |    83    0.33333   0.16667   0.66667   |    0.67934   0.78443   1.18966    |
 |    84    0.33333   0.16667   0.83333   |    0.67934   0.78443   1.48707    |
 |    85    0.33333   0.33333   0.00000   |    0.67934   1.17665   0.00000    |
 |    86    0.33333   0.33333   0.16667   |    0.67934   1.17665   0.29741    |
 |    87    0.33333   0.33333   0.33333   |    0.67934   1.17665   0.59483    |
 |    88    0.33333   0.33333   0.50000   |    0.67934   1.17665   0.89224    |
 |    89    0.33333   0.33333   0.66667   |    0.67934   1.17665   1.18966    |
 |    90    0.33333   0.33333   0.83333   |    0.67934   1.17665   1.48707    |
 |    91    0.33333   0.50000   0.00000   |    0.67934   1.56886   0.00000    |
 |    92    0.33333   0.50000   0.16667   |    0.67934   1.56886   0.29741    |
 |    93    0.33333   0.50000   0.33333   |    0.67934   1.56886   0.59483    |
 |    94    0.33333   0.50000   0.50000   |    0.67934   1.56886   0.89224    |
 |    95    0.33333   0.50000   0.66667   |    0.67934   1.56886   1.18966    |
 |    96    0.33333   0.50000   0.83333   |    0.67934   1.56886   1.48707    |
 |    97    0.33333   0.66667   0.00000   |    0.67934   1.96108   0.00000    |
 |    98    0.33333   0.66667   0.16667   |    0.67934   1.96108   0.29741    |
 |    99    0.33333   0.66667   0.33333   |    0.67934   1.96108   0.59483    |
 |   100    0.33333   0.66667   0.50000   |    0.67934   1.96108   0.89224    |
 |   101    0.33333   0.66667   0.66667   |    0.67934   1.96108   1.18966    |
 |   102    0.33333   0.66667   0.83333   |    0.67934   1.96108   1.48707    |
 |   103    0.33333   0.83333   0.00000   |    0.67934   2.35329   0.00000    |
 |   104    0.33333   0.83333   0.16667   |    0.67934   2.35329   0.29741    |
 |   105    0.33333   0.83333   0.33333   |    0.67934   2.35329   0.59483    |
 |   106    0.33333   0.83333   0.50000   |    0.67934   2.35329   0.89224    |
 |   107    0.33333   0.83333   0.66667   |    0.67934   2.35329   1.18966    |
 |   108    0.33333   0.83333   0.83333   |    0.67934   2.35329   1.48707    |
 |   109    0.50000   0.00000   0.00000   |    1.01901   0.58832   0.00000    |
 |   110    0.50000   0.00000   0.16667   |    1.01901   0.58832   0.29741    |
 |   111    0.50000   0.00000   0.33333   |    1.01901   0.58832   0.59483    |
 |   112    0.50000   0.00000   0.50000   |    1.01901   0.58832   0.89224    |
 |   113    0.50000   0.00000   0.66667   |    1.01901   0.58832   1.18966    |
 |   114    0.50000   0.00000   0.83333   |    1.01901   0.58832   1.48707    |
 |   115    0.50000   0.16667   0.00000   |    1.01901   0.98054   0.00000    |
 |   116    0.50000   0.16667   0.16667   |    1.01901   0.98054   0.29741    |
 |   117    0.50000   0.16667   0.33333   |    1.01901   0.98054   0.59483    |
 |   118    0.50000   0.16667   0.50000   |    1.01901   0.98054   0.89224    |
 |   119    0.50000   0.16667   0.66667   |    1.01901   0.98054   1.18966    |
 |   120    0.50000   0.16667   0.83333   |    1.01901   0.98054   1.48707    |
 |   121    0.50000   0.33333   0.00000   |    1.01901   1.37275   0.00000    |
 |   122    0.50000   0.33333   0.16667   |    1.01901   1.37275   0.29741    |
 |   123    0.50000   0.33333   0.33333   |    1.01901   1.37275   0.59483    |
 |   124    0.50000   0.33333   0.50000   |    1.01901   1.37275   0.89224    |
 |   125    0.50000   0.33333   0.66667   |    1.01901   1.37275   1.18966    |
 |   126    0.50000   0.33333   0.83333   |    1.01901   1.37275   1.48707    |
 |   127    0.50000   0.50000   0.00000   |    1.01901   1.76497   0.00000    |
 |   128    0.50000   0.50000   0.16667   |    1.01901   1.76497   0.29741    |
 |   129    0.50000   0.50000   0.33333   |    1.01901   1.76497   0.59483    |
 |   130    0.50000   0.50000   0.50000   |    1.01901   1.76497   0.89224    |
 |   131    0.50000   0.50000   0.66667   |    1.01901   1.76497   1.18966    |
 |   132    0.50000   0.50000   0.83333   |    1.01901   1.76497   1.48707    |
 |   133    0.50000   0.66667   0.00000   |    1.01901   2.15718   0.00000    |
 |   134    0.50000   0.66667   0.16667   |    1.01901   2.15718   0.29741    |
 |   135    0.50000   0.66667   0.33333   |    1.01901   2.15718   0.59483    |
 |   136    0.50000   0.66667   0.50000   |    1.01901   2.15718   0.89224    |
 |   137    0.50000   0.66667   0.66667   |    1.01901   2.15718   1.18966    |
 |   138    0.50000   0.66667   0.83333   |    1.01901   2.15718   1.48707    |
 |   139    0.50000   0.83333   0.00000   |    1.01901   2.54940   0.00000    |
 |   140    0.50000   0.83333   0.16667   |    1.01901   2.54940   0.29741    |
 |   141    0.50000   0.83333   0.33333   |    1.01901   2.54940   0.59483    |
 |   142    0.50000   0.83333   0.50000   |    1.01901   2.54940   0.89224    |
 |   143    0.50000   0.83333   0.66667   |    1.01901   2.54940   1.18966    |
 |   144    0.50000   0.83333   0.83333   |    1.01901   2.54940   1.48707    |
 |   145    0.66667   0.00000   0.00000   |    1.35867   0.78443   0.00000    |
 |   146    0.66667   0.00000   0.16667   |    1.35867   0.78443   0.29741    |
 |   147    0.66667   0.00000   0.33333   |    1.35867   0.78443   0.59483    |
 |   148    0.66667   0.00000   0.50000   |    1.35867   0.78443   0.89224    |
 |   149    0.66667   0.00000   0.66667   |    1.35867   0.78443   1.18966    |
 |   150    0.66667   0.00000   0.83333   |    1.35867   0.78443   1.48707    |
 |   151    0.66667   0.16667   0.00000   |    1.35867   1.17665   0.00000    |
 |   152    0.66667   0.16667   0.16667   |    1.35867   1.17665   0.29741    |
 |   153    0.66667   0.16667   0.33333   |    1.35867   1.17665   0.59483    |
 |   154    0.66667   0.16667   0.50000   |    1.35867   1.17665   0.89224    |
 |   155    0.66667   0.16667   0.66667   |    1.35867   1.17665   1.18966    |
 |   156    0.66667   0.16667   0.83333   |    1.35867   1.17665   1.48707    |
 |   157    0.66667   0.33333   0.00000   |    1.35867   1.56886   0.00000    |
 |   158    0.66667   0.33333   0.16667   |    1.35867   1.56886   0.29741    |
 |   159    0.66667   0.33333   0.33333   |    1.35867   1.56886   0.59483    |
 |   160    0.66667   0.33333   0.50000   |    1.35867   1.56886   0.89224    |
 |   161    0.66667   0.33333   0.66667   |    1.35867   1.56886   1.18966    |
 |   162    0.66667   0.33333   0.83333   |    1.35867   1.56886   1.48707    |
 |   163    0.66667   0.50000   0.00000   |    1.35867   1.96108   0.00000    |
 |   164    0.66667   0.50000   0.16667   |    1.35867   1.96108   0.29741    |
 |   165    0.66667   0.50000   0.33333   |    1.35867   1.96108   0.59483    |
 |   166    0.66667   0.50000   0.50000   |    1.35867   1.96108   0.89224    |
 |   167    0.66667   0.50000   0.66667   |    1.35867   1.96108   1.18966    |
 |   168    0.66667   0.50000   0.83333   |    1.35867   1.96108   1.48707    |
 |   169    0.66667   0.66667   0.00000   |    1.35867   2.35329   0.00000    |
 |   170    0.66667   0.66667   0.16667   |    1.35867   2.35329   0.29741    |
 |   171    0.66667   0.66667   0.33333   |    1.35867   2.35329   0.59483    |
 |   172    0.66667   0.66667   0.50000   |    1.35867   2.35329   0.89224    |
 |   173    0.66667   0.66667   0.66667   |    1.35867   2.35329   1.18966    |
 |   174    0.66667   0.66667   0.83333   |    1.35867   2.35329   1.48707    |
 |   175    0.66667   0.83333   0.00000   |    1.35867   2.74551   0.00000    |
 |   176    0.66667   0.83333   0.16667   |    1.35867   2.74551   0.29741    |
 |   177    0.66667   0.83333   0.33333   |    1.35867   2.74551   0.59483    |
 |   178    0.66667   0.83333   0.50000   |    1.35867   2.74551   0.89224    |
 |   179    0.66667   0.83333   0.66667   |    1.35867   2.74551   1.18966    |
 |   180    0.66667   0.83333   0.83333   |    1.35867   2.74551   1.48707    |
 |   181    0.83333   0.00000   0.00000   |    1.69834   0.98054   0.00000    |
 |   182    0.83333   0.00000   0.16667   |    1.69834   0.98054   0.29741    |
 |   183    0.83333   0.00000   0.33333   |    1.69834   0.98054   0.59483    |
 |   184    0.83333   0.00000   0.50000   |    1.69834   0.98054   0.89224    |
 |   185    0.83333   0.00000   0.66667   |    1.69834   0.98054   1.18966    |
 |   186    0.83333   0.00000   0.83333   |    1.69834   0.98054   1.48707    |
 |   187    0.83333   0.16667   0.00000   |    1.69834   1.37275   0.00000    |
 |   188    0.83333   0.16667   0.16667   |    1.69834   1.37275   0.29741    |
 |   189    0.83333   0.16667   0.33333   |    1.69834   1.37275   0.59483    |
 |   190    0.83333   0.16667   0.50000   |    1.69834   1.37275   0.89224    |
 |   191    0.83333   0.16667   0.66667   |    1.69834   1.37275   1.18966    |
 |   192    0.83333   0.16667   0.83333   |    1.69834   1.37275   1.48707    |
 |   193    0.83333   0.33333   0.00000   |    1.69834   1.76497   0.00000    |
 |   194    0.83333   0.33333   0.16667   |    1.69834   1.76497   0.29741    |
 |   195    0.83333   0.33333   0.33333   |    1.69834   1.76497   0.59483    |
 |   196    0.83333   0.33333   0.50000   |    1.69834   1.76497   0.89224    |
 |   197    0.83333   0.33333   0.66667   |    1.69834   1.76497   1.18966    |
 |   198    0.83333   0.33333   0.83333   |    1.69834   1.76497   1.48707    |
 |   199    0.83333   0.50000   0.00000   |    1.69834   2.15718   0.00000    |
 |   200    0.83333   0.50000   0.16667   |    1.69834   2.15718   0.29741    |
 |   201    0.83333   0.50000   0.33333   |    1.69834   2.15718   0.59483    |
 |   202    0.83333   0.50000   0.50000   |    1.69834   2.15718   0.89224    |
 |   203    0.83333   0.50000   0.66667   |    1.69834   2.15718   1.18966    |
 |   204    0.83333   0.50000   0.83333   |    1.69834   2.15718   1.48707    |
 |   205    0.83333   0.66667   0.00000   |    1.69834   2.54940   0.00000    |
 |   206    0.83333   0.66667   0.16667   |    1.69834   2.54940   0.29741    |
 |   207    0.83333   0.66667   0.33333   |    1.69834   2.54940   0.59483    |
 |   208    0.83333   0.66667   0.50000   |    1.69834   2.54940   0.89224    |
 |   209    0.83333   0.66667   0.66667   |    1.69834   2.54940   1.18966    |
 |   210    0.83333   0.66667   0.83333   |    1.69834   2.54940   1.48707    |
 |   211    0.83333   0.83333   0.00000   |    1.69834   2.94161   0.00000    |
 |   212    0.83333   0.83333   0.16667   |    1.69834   2.94161   0.29741    |
 |   213    0.83333   0.83333   0.33333   |    1.69834   2.94161   0.59483    |
 |   214    0.83333   0.83333   0.50000   |    1.69834   2.94161   0.89224    |
 |   215    0.83333   0.83333   0.66667   |    1.69834   2.94161   1.18966    |
 |   216    0.83333   0.83333   0.83333   |    1.69834   2.94161   1.48707    |
 *----------------------------------------------------------------------------*
  
  
 *---------------------------------- MAIN ------------------------------------*
 |  Number of Wannier Functions               :                 5             |
 |  Number of Objective Wannier Functions     :                 5             |
 |  Number of input Bloch states              :                 8             |
 |  Output verbosity (1=low, 5=high)          :                 2             |
 |  Timing Level (1=low, 5=high)              :                 1             |
 |  Optimisation (0=memory, 3=speed)          :                 3             |
 |  Length Unit                               :               Ang             |
 |  Post-processing setup (write *.nnkp)      :                 T             |
 |  Using Gamma-only branch of algorithms     :                 F             |
 *----------------------------------------------------------------------------*
 *------------------------------- WANNIERISE ---------------------------------*
 |  Total number of iterations                :               500             |
 |  Number of CG steps before reset           :                 5             |
 |  Trial step length for line search         :             2.000             |
 |  Convergence tolerence                     :         0.100E-09             |
 |  Convergence window                        :                -1             |
 |  Iterations between writing output         :                 1             |
 |  Iterations between backing up to disk     :               100             |
 |  Write r^2_nm to file                      :                 F             |
 |  Write xyz WF centres to file              :                 F             |
 |  Write on-site energies <0n|H|0n> to file  :                 F             |
 |  Use guiding centre to control phases      :                 F             |
 |  Use phases for initial projections        :                 F             |
 *----------------------------------------------------------------------------*
 *------------------------------- DISENTANGLE --------------------------------*
 |  Using band disentanglement                :                 T             |
 |  Total number of iterations                :               200             |
 |  Mixing ratio                              :             0.500             |
 |  Convergence tolerence                     :         1.000E-10             |
 |  Convergence window                        :                 3             |
 *----------------------------------------------------------------------------*
 Time to read parameters        0.002 (sec)

 *---------------------------------- K-MESH ----------------------------------*
 +----------------------------------------------------------------------------+
 |                    Distance to Nearest-Neighbour Shells                    |
 |                    ------------------------------------                    |
 |          Shell             Distance (Ang^-1)          Multiplicity         |
 |          -----             -----------------          ------------         |
 |             1                   0.297415                      2            |
 |             2                   0.392215                      6            |
 |             3                   0.492228                     12            |
 |             4                   0.594830                      2            |
 |             5                   0.679337                      6            |
 |             6                   0.712499                     12            |
 |             7                   0.741589                     12            |
 |             8                   0.784431                      6            |
 |             9                   0.838920                     12            |
 |            10                   0.892244                      2            |
 |            11                   0.902951                     12            |
 |            12                   0.974645                     12            |
 |            13                   0.984456                     12            |
 |            14                   1.037704                     12            |
 |            15                   1.079484                     24            |
 |            16                   1.121427                     12            |
 |            17                   1.176646                      6            |
 |            18                   1.188037                     12            |
 |            19                   1.189659                      2            |
 |            20                   1.196099                     24            |
 |            21                   1.213652                     12            |
 |            22                   1.252646                     12            |
 |            23                   1.318453                     12            |
 |            24                   1.358674                      6            |
 |            25                   1.368550                     24            |
 |            26                   1.369959                     12            |
 |            27                   1.390845                     12            |
 |            28                   1.414152                     12            |
 |            29                   1.424998                     12            |
 |            30                   1.445089                     24            |
 |            31                   1.476684                     12            |
 |            32                   1.483178                     12            |
 |            33                   1.487074                      2            |
 |            34                   1.534161                     24            |
 |            35                   1.537928                     12            |
 |            36                   1.568861                      6            |
 +----------------------------------------------------------------------------+
 | The b-vectors are chosen automatically                                     |
 | Shell:  1 w_b    5.6525542      (Ang^2)                                    |
 | Shell:  1 w_b    5.6525542      (Ang^2)                                    |
 | Shell:  2 w_b    2.1668545      (Ang^2)                                    |
 | The following shells are used:   1,  2                                     |
 +----------------------------------------------------------------------------+
 |                        Shell   # Nearest-Neighbours                        |
 |                        -----   --------------------                        |
 |                          1               2                                 |
 |                          2               6                                 |
 +----------------------------------------------------------------------------+
 | Completeness relation is fully satisfied [Eq. (B1), PRB 56, 12847 (1997)]  |
 +----------------------------------------------------------------------------+
 |                  b_k Vectors (Ang^-1) and Weights (Ang^2)                  |
 |                  ----------------------------------------                  |
 |            No.         b_k(x)      b_k(y)      b_k(z)        w_b           |
 |            ---        --------------------------------     --------        |
 |             1         0.000000    0.000000    0.297415     5.652554        |
 |             2         0.000000    0.000000   -0.297415     5.652554        |
 |             3         0.000000    0.392215    0.000000     2.166854        |
 |             4         0.339668    0.196108    0.000000     2.166854        |
 |             5         0.000000   -0.392215    0.000000     2.166854        |
 |             6         0.339668   -0.196108    0.000000     2.166854        |
 |             7        -0.339668   -0.196108    0.000000     2.166854        |
 |             8        -0.339668    0.196108    0.000000     2.166854        |
 +----------------------------------------------------------------------------+
 |                           b_k Directions (Ang^-1)                          |
 |                           -----------------------                          |
 |            No.           x           y           z                         |
 |            ---        --------------------------------                     |
 |             1         0.000000    0.000000    0.297415                     |
 |             2         0.000000    0.392215    0.000000                     |
 |             3         0.339668    0.196108    0.000000                     |
 |             4         0.339668   -0.196108    0.000000                     |
 +----------------------------------------------------------------------------+
  
 Time to get kmesh              2.099 (sec)

 *------------------------------- DISENTANGLE --------------------------------*
 +----------------------------------------------------------------------------+
 |                              Energy  Windows                               |
 |                              ---------------                               |
 |                   Outer: **********  to 9999.00000  (eV)                   |
 |                   Inner: **********  to    8.80000  (eV)                   |
 +----------------------------------------------------------------------------+
 |                        K-points with Frozen States                         |
 |                        ---------------------------                         |
 |     1     2     3     4     5     6     7     8     9    10    11    12    |
 |    13    14    15    16    17    18    19    20    21    22    23    24    |
 |    25    26    27    28    29    30    31    32    33    34    35    36    |
 |    37    38    39    40    41    42    43    44    45    46    47    48    |
 |    49    50    51    52    53    54    55    56    57    58    59    60    |
 |    61    62    63    64    65    66    67    68    69    70    71    72    |
 |    73    74    75    76    77    78    79    80    81    82    83    84    |
 |    85    86    87    88    89    90    91    92    93    94    95    96    |
 |    97    98    99   100   101   102   103   104   105   106   107   108    |
 |   109   110   111   112   113   114   115   116   117   118   119   120    |
 |   121   122   123   124   125   126   127   128   129   130   131   132    |
 |   133   134   135   136   137   138   139   140   141   142   143   144    |
 |   145   146   147   148   149   150   151   152   153   154   155   156    |
 |   157   158   159   160   161   162   163   164   165   166   167   168    |
 |   169   170   171   172   173   174   175   176   177   178   179   180    |
 |   181   182   183   184   185   186   187   188   189   190   191   192    |
 |   193   194   195   196   197   198   199   200   201   202   203   204    |
 |   205   206   207   208   209   210   211   212   213   214   215   216    |
 +----------------------------------------------------------------------------+
   Number of target bands to extract:    5
 +----------------------------------------------------------------------------+
 |                                  Windows                                   |
 |                                  -------                                   |
 |               K-point      Ndimwin     Ndimfroz    Nfirstwin               |
 |               ----------------------------------------------               |
 |                   1            8            4           1                  |
 |                   2            8            4           1                  |
 |                   3            8            4           1                  |
 |                   4            8            4           1                  |
 |                   5            8            4           1                  |
 |                   6            8            4           1                  |
 |                   7            8            4           1                  |
 |                   8            8            4           1                  |
 |                   9            8            4           1                  |
 |                  10            8            4           1                  |
 |                  11            8            4           1                  |
 |                  12            8            4           1                  |
 |                  13            8            4           1                  |
 |                  14            8            4           1                  |
 |                  15            8            4           1                  |
 |                  16            8            5           1                  |
 |                  17            8            4           1                  |
 |                  18            8            4           1                  |
 |                  19            8            4           1                  |
 |                  20            8            4           1                  |
 |                  21            8            5           1                  |
 |                  22            8            5           1                  |
 |                  23            8            5           1                  |
 |                  24            8            4           1                  |
 |                  25            8            4           1                  |
 |                  26            8            4           1                  |
 |                  27            8            4           1                  |
 |                  28            8            5           1                  |
 |                  29            8            4           1                  |
 |                  30            8            4           1                  |
 |                  31            8            4           1                  |
 |                  32            8            4           1                  |
 |                  33            8            4           1                  |
 |                  34            8            4           1                  |
 |                  35            8            4           1                  |
 |                  36            8            4           1                  |
 |                  37            8            4           1                  |
 |                  38            8            4           1                  |
 |                  39            8            4           1                  |
 |                  40            8            4           1                  |
 |                  41            8            4           1                  |
 |                  42            8            4           1                  |
 |                  43            8            4           1                  |
 |                  44            8            4           1                  |
 |                  45            8            4           1                  |
 |                  46            8            4           1                  |
 |                  47            8            4           1                  |
 |                  48            8            4           1                  |
 |                  49            8            4           1                  |
 |                  50            8            4           1                  |
 |                  51            8            5           1                  |
 |                  52            8            5           1                  |
 |                  53            8            5           1                  |
 |                  54            8            4           1                  |
 |                  55            8            4           1                  |
 |                  56            8            4           1                  |
 |                  57            8            5           1                  |
 |                  58            8            5           1                  |
 |                  59            8            5           1                  |
 |                  60            8            4           1                  |
 |                  61            8            4           1                  |
 |                  62            8            4           1                  |
 |                  63            8            4           1                  |
 |                  64            8            4           1                  |
 |                  65            8            4           1                  |
 |                  66            8            4           1                  |
 |                  67            8            4           1                  |
 |                  68            8            4           1                  |
 |                  69            8            4           1                  |
 |                  70            8            4           1                  |
 |                  71            8            4           1                  |
 |                  72            8            4           1                  |
 |                  73            8            4           1                  |
 |                  74            8            4           1                  |
 |                  75            8            4           1                  |
 |                  76            8            5           1                  |
 |                  77            8            4           1                  |
 |                  78            8            4           1                  |
 |                  79            8            4           1                  |
 |                  80            8            4           1                  |
 |                  81            8            5           1                  |
 |                  82            8            5           1                  |
 |                  83            8            5           1                  |
 |                  84            8            4           1                  |
 |                  85            8            3           1                  |
 |                  86            8            5           1                  |
 |                  87            8            5           1                  |
 |                  88            8            5           1                  |
 |                  89            8            5           1                  |
 |                  90            8            5           1                  |
 |                  91            8            4           1                  |
 |                  92            8            4           1                  |
 |                  93            8            5           1                  |
 |                  94            8            5           1                  |
 |                  95            8            5           1                  |
 |                  96            8            4           1                  |
 |                  97            8            4           1                  |
 |                  98            8            4           1                  |
 |                  99            8            4           1                  |
 |                 100            8            5           1                  |
 |                 101            8            4           1                  |
 |                 102            8            4           1                  |
 |                 103            8            4           1                  |
 |                 104            8            4           1                  |
 |                 105            8            4           1                  |
 |                 106            8            4           1                  |
 |                 107            8            4           1                  |
 |                 108            8            4           1                  |
 |                 109            8            4           1                  |
 |                 110            8            4           1                  |
 |                 111            8            5           1                  |
 |                 112            8            5           1                  |
 |                 113            8            5           1                  |
 |                 114            8            4           1                  |
 |                 115            8            4           1                  |
 |                 116            8            4           1                  |
 |                 117            8            5           1                  |
 |                 118            8            5           1                  |
 |                 119            8            5           1                  |
 |                 120            8            4           1                  |
 |                 121            8            4           1                  |
 |                 122            8            4           1                  |
 |                 123            8            5           1                  |
 |                 124            8            5           1                  |
 |                 125            8            5           1                  |
 |                 126            8            4           1                  |
 |                 127            8            4           1                  |
 |                 128            8            4           1                  |
 |                 129            8            5           1                  |
 |                 130            8            5           1                  |
 |                 131            8            5           1                  |
 |                 132            8            4           1                  |
 |                 133            8            4           1                  |
 |                 134            8            4           1                  |
 |                 135            8            5           1                  |
 |                 136            8            5           1                  |
 |                 137            8            5           1                  |
 |                 138            8            4           1                  |
 |                 139            8            4           1                  |
 |                 140            8            4           1                  |
 |                 141            8            5           1                  |
 |                 142            8            5           1                  |
 |                 143            8            5           1                  |
 |                 144            8            4           1                  |
 |                 145            8            4           1                  |
 |                 146            8            4           1                  |
 |                 147            8            4           1                  |
 |                 148            8            5           1                  |
 |                 149            8            4           1                  |
 |                 150            8            4           1                  |
 |                 151            8            4           1                  |
 |                 152            8            4           1                  |
 |                 153            8            4           1                  |
 |                 154            8            4           1                  |
 |                 155            8            4           1                  |
 |                 156            8            4           1                  |
 |                 157            8            4           1                  |
 |                 158            8            4           1                  |
 |                 159            8            4           1                  |
 |                 160            8            5           1                  |
 |                 161            8            4           1                  |
 |                 162            8            4           1                  |
 |                 163            8            4           1                  |
 |                 164            8            4           1                  |
 |                 165            8            5           1                  |
 |                 166            8            5           1                  |
 |                 167            8            5           1                  |
 |                 168            8            4           1                  |
 |                 169            8            3           1                  |
 |                 170            8            5           1                  |
 |                 171            8            5           1                  |
 |                 172            8            5           1                  |
 |                 173            8            5           1                  |
 |                 174            8            5           1                  |
 |                 175            8            4           1                  |
 |                 176            8            4           1                  |
 |                 177            8            5           1                  |
[...]
 ------------------------------------------------------------------------------
 Cycle:    479
  WF centre and spread    1  ( -0.000000,  1.779971,  2.143679 )     2.34403227
  WF centre and spread    2  (  1.541500,  0.889986,  2.143678 )     2.34403247
  WF centre and spread    3  (  0.000000,  2.669956,  1.531849 )     1.24171760
  WF centre and spread    4  ( -0.770750,  1.334978,  1.531848 )     1.24171754
  WF centre and spread    5  (  0.770750,  1.334978,  1.531848 )     1.24171752
  Sum of centres and spreads (  1.541500,  8.009868,  8.882903 )     8.41321740

    479    -0.277E-12     0.0000010996        8.4132160220       6.93  <-- CONV
        O_D=      0.1153982 O_OD=      1.8581404 O_TOT=      8.4132160 <-- SPRD
 Delta: O_D= -0.3035761E-09 O_OD=  0.3033001E-09 O_TOT= -0.2771117E-12 <-- DLTA
 ------------------------------------------------------------------------------
 Cycle:    480
  WF centre and spread    1  ( -0.000000,  1.779971,  2.143679 )     2.34403227
  WF centre and spread    2  (  1.541500,  0.889986,  2.143678 )     2.34403246
  WF centre and spread    3  (  0.000000,  2.669956,  1.531849 )     1.24171761
  WF centre and spread    4  ( -0.770750,  1.334978,  1.531848 )     1.24171754
  WF centre and spread    5  (  0.770750,  1.334978,  1.531848 )     1.24171752
  Sum of centres and spreads (  1.541500,  8.009868,  8.882903 )     8.41321740

    480    -0.126E-12     0.0000010982        8.4132160220       6.93  <-- CONV
        O_D=      0.1153982 O_OD=      1.8581404 O_TOT=      8.4132160 <-- SPRD
 Delta: O_D= -0.1350481E-09 O_OD=  0.1349223E-09 O_TOT= -0.1261213E-12 <-- DLTA
 ------------------------------------------------------------------------------
 Cycle:    481
  WF centre and spread    1  ( -0.000000,  1.779971,  2.143679 )     2.34403226
  WF centre and spread    2  (  1.541500,  0.889986,  2.143678 )     2.34403246
  WF centre and spread    3  (  0.000000,  2.669956,  1.531849 )     1.24171761
  WF centre and spread    4  ( -0.770750,  1.334978,  1.531848 )     1.24171754
  WF centre and spread    5  (  0.770750,  1.334978,  1.531848 )     1.24171752
  Sum of centres and spreads (  1.541500,  8.009868,  8.882903 )     8.41321740

    481    -0.179E-12     0.0000010975        8.4132160220       6.94  <-- CONV
        O_D=      0.1153982 O_OD=      1.8581404 O_TOT=      8.4132160 <-- SPRD
 Delta: O_D= -0.1619238E-09 O_OD=  0.1617446E-09 O_TOT= -0.1794120E-12 <-- DLTA
 ------------------------------------------------------------------------------
 Cycle:    482
  WF centre and spread    1  ( -0.000000,  1.779971,  2.143679 )     2.34403226
  WF centre and spread    2  (  1.541500,  0.889986,  2.143678 )     2.34403246
  WF centre and spread    3  (  0.000000,  2.669956,  1.531849 )     1.24171761
  WF centre and spread    4  ( -0.770750,  1.334978,  1.531848 )     1.24171754
  WF centre and spread    5  (  0.770750,  1.334978,  1.531848 )     1.24171752
  Sum of centres and spreads (  1.541500,  8.009868,  8.882903 )     8.41321740

    482     0.320E-13     0.0000010968        8.4132160220       6.96  <-- CONV
        O_D=      0.1153982 O_OD=      1.8581404 O_TOT=      8.4132160 <-- SPRD
 Delta: O_D= -0.7546061E-11 O_OD=  0.7577716E-11 O_TOT=  0.3197442E-13 <-- DLTA
 ------------------------------------------------------------------------------
 Cycle:    483
  WF centre and spread    1  ( -0.000000,  1.779971,  2.143679 )     2.34403226
  WF centre and spread    2  (  1.541500,  0.889986,  2.143678 )     2.34403246
  WF centre and spread    3  (  0.000000,  2.669956,  1.531849 )     1.24171761
  WF centre and spread    4  ( -0.770750,  1.334978,  1.531848 )     1.24171755
  WF centre and spread    5  (  0.770750,  1.334978,  1.531848 )     1.24171752
  Sum of centres and spreads (  1.541500,  8.009868,  8.882903 )     8.41321740

    483    -0.497E-13     0.0000010968        8.4132160220       6.97  <-- CONV
        O_D=      0.1153982 O_OD=      1.8581404 O_TOT=      8.4132160 <-- SPRD
 Delta: O_D= -0.5402111E-10 O_OD=  0.5397105E-10 O_TOT= -0.4973799E-13 <-- DLTA
 ------------------------------------------------------------------------------
 Cycle:    484
  WF centre and spread    1  ( -0.000000,  1.779971,  2.143679 )     2.34403226
  WF centre and spread    2  (  1.541500,  0.889986,  2.143678 )     2.34403245
  WF centre and spread    3  (  0.000000,  2.669956,  1.531849 )     1.24171761
  WF centre and spread    4  ( -0.770750,  1.334978,  1.531848 )     1.24171755
  WF centre and spread    5  (  0.770750,  1.334978,  1.531848 )     1.24171753
  Sum of centres and spreads (  1.541500,  8.009868,  8.882903 )     8.41321740

    484    -0.197E-12     0.0000010965        8.4132160220       6.98  <-- CONV
        O_D=      0.1153982 O_OD=      1.8581404 O_TOT=      8.4132160 <-- SPRD
 Delta: O_D= -0.1732496E-09 O_OD=  0.1730531E-09 O_TOT= -0.1971756E-12 <-- DLTA
 ------------------------------------------------------------------------------
 Cycle:    485
  WF centre and spread    1  ( -0.000000,  1.779971,  2.143679 )     2.34403225
  WF centre and spread    2  (  1.541500,  0.889986,  2.143678 )     2.34403245
  WF centre and spread    3  (  0.000000,  2.669956,  1.531849 )     1.24171761
  WF centre and spread    4  ( -0.770750,  1.334978,  1.531848 )     1.24171755
  WF centre and spread    5  (  0.770750,  1.334978,  1.531848 )     1.24171753
  Sum of centres and spreads (  1.541500,  8.009868,  8.882903 )     8.41321740

    485    -0.156E-12     0.0000010957        8.4132160220       7.00  <-- CONV
        O_D=      0.1153982 O_OD=      1.8581404 O_TOT=      8.4132160 <-- SPRD
 Delta: O_D= -0.2208141E-09 O_OD=  0.2206575E-09 O_TOT= -0.1563194E-12 <-- DLTA
 ------------------------------------------------------------------------------
 Cycle:    486
  WF centre and spread    1  ( -0.000000,  1.779971,  2.143679 )     2.34403225
  WF centre and spread    2  (  1.541500,  0.889986,  2.143678 )     2.34403245
  WF centre and spread    3  (  0.000000,  2.669956,  1.531849 )     1.24171762
  WF centre and spread    4  ( -0.770750,  1.334978,  1.531848 )     1.24171755
  WF centre and spread    5  (  0.770750,  1.334978,  1.531848 )     1.24171753
  Sum of centres and spreads (  1.541500,  8.009868,  8.882903 )     8.41321740

    486    -0.139E-12     0.0000010947        8.4132160220       7.01  <-- CONV
        O_D=      0.1153982 O_OD=      1.8581404 O_TOT=      8.4132160 <-- SPRD
 Delta: O_D= -0.1346248E-09 O_OD=  0.1344864E-09 O_TOT= -0.1385558E-12 <-- DLTA
 ------------------------------------------------------------------------------
 Cycle:    487
  WF centre and spread    1  ( -0.000000,  1.779971,  2.143679 )     2.34403224
  WF centre and spread    2  (  1.541500,  0.889986,  2.143678 )     2.34403243
  WF centre and spread    3  (  0.000000,  2.669956,  1.531849 )     1.24171763
  WF centre and spread    4  ( -0.770750,  1.334978,  1.531848 )     1.24171756
  WF centre and spread    5  (  0.770750,  1.334978,  1.531848 )     1.24171754
  Sum of centres and spreads (  1.541500,  8.009868,  8.882903 )     8.41321740

    487    -0.503E-12     0.0000010940        8.4132160220       7.02  <-- CONV
        O_D=      0.1153982 O_OD=      1.8581404 O_TOT=      8.4132160 <-- SPRD
 Delta: O_D= -0.5567647E-09 O_OD=  0.5562601E-09 O_TOT= -0.5027090E-12 <-- DLTA
 ------------------------------------------------------------------------------
 Cycle:    488
  WF centre and spread    1  ( -0.000000,  1.779971,  2.143679 )     2.34403224
  WF centre and spread    2  (  1.541500,  0.889986,  2.143678 )     2.34403243
  WF centre and spread    3  (  0.000000,  2.669956,  1.531849 )     1.24171763
  WF centre and spread    4  ( -0.770750,  1.334978,  1.531848 )     1.24171756
  WF centre and spread    5  (  0.770750,  1.334978,  1.531848 )     1.24171754
  Sum of centres and spreads (  1.541500,  8.009868,  8.882903 )     8.41321740

    488    -0.266E-13     0.0000010915        8.4132160220       7.03  <-- CONV
        O_D=      0.1153982 O_OD=      1.8581404 O_TOT=      8.4132160 <-- SPRD
 Delta: O_D= -0.2688116E-10 O_OD=  0.2685563E-10 O_TOT= -0.2664535E-13 <-- DLTA
 ------------------------------------------------------------------------------
 Cycle:    489
  WF centre and spread    1  ( -0.000000,  1.779971,  2.143679 )     2.34403224
  WF centre and spread    2  (  1.541500,  0.889986,  2.143678 )     2.34403243
  WF centre and spread    3  (  0.000000,  2.669956,  1.531849 )     1.24171763
  WF centre and spread    4  ( -0.770750,  1.334978,  1.531848 )     1.24171756
  WF centre and spread    5  (  0.770750,  1.334978,  1.531848 )     1.24171754
  Sum of centres and spreads (  1.541500,  8.009868,  8.882903 )     8.41321740

    489    -0.533E-13     0.0000010913        8.4132160220       7.04  <-- CONV
        O_D=      0.1153982 O_OD=      1.8581404 O_TOT=      8.4132160 <-- SPRD
 Delta: O_D= -0.5375173E-10 O_OD=  0.5369793E-10 O_TOT= -0.5329071E-13 <-- DLTA
 ------------------------------------------------------------------------------
 Cycle:    490
  WF centre and spread    1  ( -0.000000,  1.779971,  2.143679 )     2.34403223
  WF centre and spread    2  (  1.541500,  0.889986,  2.143678 )     2.34403243
  WF centre and spread    3  (  0.000000,  2.669956,  1.531849 )     1.24171763
  WF centre and spread    4  ( -0.770750,  1.334978,  1.531848 )     1.24171757
  WF centre and spread    5  (  0.770750,  1.334978,  1.531848 )     1.24171755
  Sum of centres and spreads (  1.541500,  8.009868,  8.882903 )     8.41321740

    490    -0.298E-12     0.0000010911        8.4132160220       7.06  <-- CONV
        O_D=      0.1153982 O_OD=      1.8581404 O_TOT=      8.4132160 <-- SPRD
 Delta: O_D= -0.3114665E-09 O_OD=  0.3111691E-09 O_TOT= -0.2984279E-12 <-- DLTA
 ------------------------------------------------------------------------------
 Cycle:    491
  WF centre and spread    1  ( -0.000000,  1.779971,  2.143679 )     2.34403222
  WF centre and spread    2  (  1.541500,  0.889986,  2.143679 )     2.34403242
  WF centre and spread    3  (  0.000000,  2.669956,  1.531849 )     1.24171764
  WF centre and spread    4  ( -0.770750,  1.334978,  1.531848 )     1.24171757
  WF centre and spread    5  (  0.770750,  1.334978,  1.531848 )     1.24171755
  Sum of centres and spreads (  1.541500,  8.009868,  8.882903 )     8.41321740

    491    -0.341E-12     0.0000010896        8.4132160220       7.07  <-- CONV
        O_D=      0.1153982 O_OD=      1.8581404 O_TOT=      8.4132160 <-- SPRD
 Delta: O_D= -0.3711426E-09 O_OD=  0.3708012E-09 O_TOT= -0.3410605E-12 <-- DLTA
 ------------------------------------------------------------------------------
 Cycle:    492
  WF centre and spread    1  ( -0.000000,  1.779971,  2.143679 )     2.34403219
  WF centre and spread    2  (  1.541500,  0.889986,  2.143679 )     2.34403239
  WF centre and spread    3  (  0.000000,  2.669956,  1.531849 )     1.24171766
  WF centre and spread    4  ( -0.770750,  1.334978,  1.531848 )     1.24171759
  WF centre and spread    5  (  0.770750,  1.334978,  1.531848 )     1.24171757
  Sum of centres and spreads (  1.541500,  8.009868,  8.882903 )     8.41321740

    492    -0.123E-11     0.0000010879        8.4132160220       7.09  <-- CONV
        O_D=      0.1153982 O_OD=      1.8581404 O_TOT=      8.4132160 <-- SPRD
 Delta: O_D= -0.1351875E-08 O_OD=  0.1350643E-08 O_TOT= -0.1231015E-11 <-- DLTA
 ------------------------------------------------------------------------------
 Cycle:    493
  WF centre and spread    1  ( -0.000000,  1.779971,  2.143679 )     2.34403218
  WF centre and spread    2  (  1.541500,  0.889986,  2.143679 )     2.34403238
  WF centre and spread    3  (  0.000000,  2.669956,  1.531849 )     1.24171766
  WF centre and spread    4  ( -0.770750,  1.334978,  1.531848 )     1.24171760
  WF centre and spread    5  (  0.770750,  1.334978,  1.531848 )     1.24171758
  Sum of centres and spreads (  1.541500,  8.009868,  8.882903 )     8.41321740

    493    -0.338E-12     0.0000010816        8.4132160220       7.10  <-- CONV
        O_D=      0.1153982 O_OD=      1.8581404 O_TOT=      8.4132160 <-- SPRD
 Delta: O_D= -0.4069864E-09 O_OD=  0.4066498E-09 O_TOT= -0.3375078E-12 <-- DLTA
 ------------------------------------------------------------------------------
 Cycle:    494
  WF centre and spread    1  ( -0.000000,  1.779971,  2.143679 )     2.34403218
  WF centre and spread    2  (  1.541500,  0.889986,  2.143679 )     2.34403238
  WF centre and spread    3  (  0.000000,  2.669956,  1.531849 )     1.24171766
  WF centre and spread    4  ( -0.770750,  1.334978,  1.531848 )     1.24171760
  WF centre and spread    5  (  0.770750,  1.334978,  1.531848 )     1.24171758
  Sum of centres and spreads (  1.541500,  8.009868,  8.882903 )     8.41321740

    494    -0.568E-13     0.0000010797        8.4132160220       7.12  <-- CONV
        O_D=      0.1153982 O_OD=      1.8581404 O_TOT=      8.4132160 <-- SPRD
 Delta: O_D= -0.3263205E-10 O_OD=  0.3257505E-10 O_TOT= -0.5684342E-13 <-- DLTA
 ------------------------------------------------------------------------------
 Cycle:    495
  WF centre and spread    1  ( -0.000000,  1.779971,  2.143679 )     2.34403218
  WF centre and spread    2  (  1.541500,  0.889986,  2.143679 )     2.34403238
  WF centre and spread    3  (  0.000000,  2.669956,  1.531849 )     1.24171766
  WF centre and spread    4  ( -0.770750,  1.334978,  1.531848 )     1.24171760
  WF centre and spread    5  (  0.770750,  1.334978,  1.531848 )     1.24171758
  Sum of centres and spreads (  1.541500,  8.009868,  8.882903 )     8.41321740

    495    -0.320E-13     0.0000010796        8.4132160220       7.13  <-- CONV
        O_D=      0.1153982 O_OD=      1.8581404 O_TOT=      8.4132160 <-- SPRD
 Delta: O_D= -0.5984141E-10 O_OD=  0.5980927E-10 O_TOT= -0.3197442E-13 <-- DLTA
 ------------------------------------------------------------------------------
 Cycle:    496
  WF centre and spread    1  ( -0.000000,  1.779971,  2.143679 )     2.34403218
  WF centre and spread    2  (  1.541500,  0.889986,  2.143679 )     2.34403237
  WF centre and spread    3  (  0.000000,  2.669956,  1.531849 )     1.24171767
  WF centre and spread    4  ( -0.770750,  1.334978,  1.531848 )     1.24171760
  WF centre and spread    5  (  0.770750,  1.334978,  1.531848 )     1.24171758
  Sum of centres and spreads (  1.541500,  8.009868,  8.882903 )     8.41321740

    496    -0.746E-13     0.0000010793        8.4132160220       7.14  <-- CONV
        O_D=      0.1153982 O_OD=      1.8581404 O_TOT=      8.4132160 <-- SPRD
 Delta: O_D= -0.7972652E-10 O_OD=  0.7965251E-10 O_TOT= -0.7460699E-13 <-- DLTA
 ------------------------------------------------------------------------------
 Cycle:    497
  WF centre and spread    1  ( -0.000000,  1.779971,  2.143679 )     2.34403218
  WF centre and spread    2  (  1.541500,  0.889986,  2.143679 )     2.34403237
  WF centre and spread    3  (  0.000000,  2.669956,  1.531849 )     1.24171767
  WF centre and spread    4  ( -0.770750,  1.334978,  1.531848 )     1.24171760
  WF centre and spread    5  (  0.770750,  1.334978,  1.531848 )     1.24171758
  Sum of centres and spreads (  1.541500,  8.009868,  8.882903 )     8.41321740

    497    -0.107E-12     0.0000010789        8.4132160220       7.15  <-- CONV
        O_D=      0.1153982 O_OD=      1.8581404 O_TOT=      8.4132160 <-- SPRD
 Delta: O_D= -0.1062437E-09 O_OD=  0.1061378E-09 O_TOT= -0.1065814E-12 <-- DLTA
 ------------------------------------------------------------------------------
 Cycle:    498
  WF centre and spread    1  ( -0.000000,  1.779971,  2.143679 )     2.34403217
  WF centre and spread    2  (  1.541500,  0.889986,  2.143679 )     2.34403237
  WF centre and spread    3  (  0.000000,  2.669956,  1.531849 )     1.24171767
  WF centre and spread    4  ( -0.770750,  1.334978,  1.531848 )     1.24171761
  WF centre and spread    5  (  0.770750,  1.334978,  1.531848 )     1.24171758
  Sum of centres and spreads (  1.541500,  8.009868,  8.882903 )     8.41321740

    498    -0.124E-12     0.0000010784        8.4132160220       7.16  <-- CONV
        O_D=      0.1153982 O_OD=      1.8581404 O_TOT=      8.4132160 <-- SPRD
 Delta: O_D= -0.1327061E-09 O_OD=  0.1325802E-09 O_TOT= -0.1243450E-12 <-- DLTA
 ------------------------------------------------------------------------------
 Cycle:    499
  WF centre and spread    1  ( -0.000000,  1.779971,  2.143679 )     2.34403216
  WF centre and spread    2  (  1.541500,  0.889986,  2.143679 )     2.34403235
  WF centre and spread    3  (  0.000000,  2.669956,  1.531849 )     1.24171768
  WF centre and spread    4  ( -0.770750,  1.334978,  1.531848 )     1.24171762
  WF centre and spread    5  (  0.770750,  1.334978,  1.531848 )     1.24171759
  Sum of centres and spreads (  1.541500,  8.009868,  8.882903 )     8.41321740

    499    -0.634E-12     0.0000010778        8.4132160220       7.18  <-- CONV
        O_D=      0.1153982 O_OD=      1.8581404 O_TOT=      8.4132160 <-- SPRD
 Delta: O_D= -0.7430131E-09 O_OD=  0.7423790E-09 O_TOT= -0.6341594E-12 <-- DLTA
 ------------------------------------------------------------------------------
 Cycle:    500
  WF centre and spread    1  ( -0.000000,  1.779971,  2.143679 )     2.34403216
  WF centre and spread    2  (  1.541500,  0.889986,  2.143679 )     2.34403235
  WF centre and spread    3  (  0.000000,  2.669956,  1.531849 )     1.24171768
  WF centre and spread    4  ( -0.770750,  1.334978,  1.531848 )     1.24171762
  WF centre and spread    5  (  0.770750,  1.334978,  1.531848 )     1.24171759
  Sum of centres and spreads (  1.541500,  8.009868,  8.882903 )     8.41321740

    500    -0.391E-13     0.0000010744        8.4132160220       7.19  <-- CONV
        O_D=      0.1153982 O_OD=      1.8581404 O_TOT=      8.4132160 <-- SPRD
 Delta: O_D= -0.2646133E-10 O_OD=  0.2642353E-10 O_TOT= -0.3907985E-13 <-- DLTA
 ------------------------------------------------------------------------------

 Writing checkpoint file MgB2.chk... done

 Final State
  WF centre and spread    1  ( -0.000000,  1.779971,  2.143679 )     2.34403216
  WF centre and spread    2  (  1.541500,  0.889986,  2.143679 )     2.34403235
  WF centre and spread    3  (  0.000000,  2.669956,  1.531849 )     1.24171768
  WF centre and spread    4  ( -0.770750,  1.334978,  1.531848 )     1.24171762
  WF centre and spread    5  (  0.770750,  1.334978,  1.531848 )     1.24171759
  Sum of centres and spreads (  1.541500,  8.009868,  8.882903 )     8.41321740

         Spreads (Ang^2)       Omega I      =     6.439677424
        ================       Omega D      =     0.115398192
                               Omega OD     =     1.858140406
    Final Spread (Ang^2)       Omega Total  =     8.413216022
 ------------------------------------------------------------------------------

 Writing checkpoint file MgB2.chk... done

 Time for wannierise            6.860 (sec)
 Total Execution Time           9.305 (sec)

 *===========================================================================*
 |                             TIMING INFORMATION                            |
 *===========================================================================*
 |    Tag                                                Ncalls      Time (s)|
 |---------------------------------------------------------------------------|
 |kmesh: get                                        :         2         4.239|
 |kmesh: write                                      :         1         0.002|
 |overlap: allocate                                 :         1         0.000|
 |dis: main                                         :         1         0.341|
 |wann: main                                        :         1         6.858|
 *---------------------------------------------------------------------------*

 All done: wannier90 exiting
