File written on 17Jun2021 at 23:22:22 

calc_only_A  :  F

begin real_lattice
   3.0829998   0.0000000   0.0000000
  -1.5414999   2.6699561   0.0000000
   0.0000000   0.0000000   3.5209997
end real_lattice

begin recip_lattice
   2.0380103   1.1766458  -0.0000000
   0.0000000   2.3532916   0.0000000
   0.0000000  -0.0000000   1.7844890
end recip_lattice

begin kpoints
   216
    0.00000000    0.00000000    0.00000000
    0.00000000    0.00000000    0.16666667
    0.00000000    0.00000000    0.33333333
    0.00000000    0.00000000    0.50000000
    0.00000000    0.00000000    0.66666667
    0.00000000    0.00000000    0.83333333
    0.00000000    0.16666667    0.00000000
    0.00000000    0.16666667    0.16666667
    0.00000000    0.16666667    0.33333333
    0.00000000    0.16666667    0.50000000
    0.00000000    0.16666667    0.66666667
    0.00000000    0.16666667    0.83333333
    0.00000000    0.33333333    0.00000000
    0.00000000    0.33333333    0.16666667
    0.00000000    0.33333333    0.33333333
    0.00000000    0.33333333    0.50000000
    0.00000000    0.33333333    0.66666667
    0.00000000    0.33333333    0.83333333
    0.00000000    0.50000000    0.00000000
    0.00000000    0.50000000    0.16666667
    0.00000000    0.50000000    0.33333333
    0.00000000    0.50000000    0.50000000
    0.00000000    0.50000000    0.66666667
    0.00000000    0.50000000    0.83333333
    0.00000000    0.66666667    0.00000000
    0.00000000    0.66666667    0.16666667
    0.00000000    0.66666667    0.33333333
    0.00000000    0.66666667    0.50000000
    0.00000000    0.66666667    0.66666667
    0.00000000    0.66666667    0.83333333
    0.00000000    0.83333333    0.00000000
    0.00000000    0.83333333    0.16666667
    0.00000000    0.83333333    0.33333333
    0.00000000    0.83333333    0.50000000
    0.00000000    0.83333333    0.66666667
    0.00000000    0.83333333    0.83333333
    0.16666667    0.00000000    0.00000000
    0.16666667    0.00000000    0.16666667
    0.16666667    0.00000000    0.33333333
    0.16666667    0.00000000    0.50000000
    0.16666667    0.00000000    0.66666667
    0.16666667    0.00000000    0.83333333
    0.16666667    0.16666667    0.00000000
    0.16666667    0.16666667    0.16666667
    0.16666667    0.16666667    0.33333333
    0.16666667    0.16666667    0.50000000
    0.16666667    0.16666667    0.66666667
    0.16666667    0.16666667    0.83333333
    0.16666667    0.33333333    0.00000000
    0.16666667    0.33333333    0.16666667
    0.16666667    0.33333333    0.33333333
    0.16666667    0.33333333    0.50000000
    0.16666667    0.33333333    0.66666667
    0.16666667    0.33333333    0.83333333
    0.16666667    0.50000000    0.00000000
    0.16666667    0.50000000    0.16666667
    0.16666667    0.50000000    0.33333333
    0.16666667    0.50000000    0.50000000
    0.16666667    0.50000000    0.66666667
    0.16666667    0.50000000    0.83333333
    0.16666667    0.66666667    0.00000000
    0.16666667    0.66666667    0.16666667
    0.16666667    0.66666667    0.33333333
    0.16666667    0.66666667    0.50000000
    0.16666667    0.66666667    0.66666667
    0.16666667    0.66666667    0.83333333
    0.16666667    0.83333333    0.00000000
    0.16666667    0.83333333    0.16666667
    0.16666667    0.83333333    0.33333333
    0.16666667    0.83333333    0.50000000
    0.16666667    0.83333333    0.66666667
    0.16666667    0.83333333    0.83333333
    0.33333333    0.00000000    0.00000000
    0.33333333    0.00000000    0.16666667
    0.33333333    0.00000000    0.33333333
    0.33333333    0.00000000    0.50000000
    0.33333333    0.00000000    0.66666667
    0.33333333    0.00000000    0.83333333
    0.33333333    0.16666667    0.00000000
    0.33333333    0.16666667    0.16666667
    0.33333333    0.16666667    0.33333333
    0.33333333    0.16666667    0.50000000
    0.33333333    0.16666667    0.66666667
    0.33333333    0.16666667    0.83333333
    0.33333333    0.33333333    0.00000000
    0.33333333    0.33333333    0.16666667
    0.33333333    0.33333333    0.33333333
    0.33333333    0.33333333    0.50000000
    0.33333333    0.33333333    0.66666667
    0.33333333    0.33333333    0.83333333
    0.33333333    0.50000000    0.00000000
    0.33333333    0.50000000    0.16666667
    0.33333333    0.50000000    0.33333333
    0.33333333    0.50000000    0.50000000
    0.33333333    0.50000000    0.66666667
    0.33333333    0.50000000    0.83333333
    0.33333333    0.66666667    0.00000000
    0.33333333    0.66666667    0.16666667
    0.33333333    0.66666667    0.33333333
    0.33333333    0.66666667    0.50000000
    0.33333333    0.66666667    0.66666667
    0.33333333    0.66666667    0.83333333
    0.33333333    0.83333333    0.00000000
    0.33333333    0.83333333    0.16666667
    0.33333333    0.83333333    0.33333333
    0.33333333    0.83333333    0.50000000
    0.33333333    0.83333333    0.66666667
    0.33333333    0.83333333    0.83333333
    0.50000000    0.00000000    0.00000000
    0.50000000    0.00000000    0.16666667
    0.50000000    0.00000000    0.33333333
    0.50000000    0.00000000    0.50000000
    0.50000000    0.00000000    0.66666667
    0.50000000    0.00000000    0.83333333
    0.50000000    0.16666667    0.00000000
    0.50000000    0.16666667    0.16666667
    0.50000000    0.16666667    0.33333333
    0.50000000    0.16666667    0.50000000
    0.50000000    0.16666667    0.66666667
    0.50000000    0.16666667    0.83333333
    0.50000000    0.33333333    0.00000000
    0.50000000    0.33333333    0.16666667
    0.50000000    0.33333333    0.33333333
    0.50000000    0.33333333    0.50000000
    0.50000000    0.33333333    0.66666667
    0.50000000    0.33333333    0.83333333
    0.50000000    0.50000000    0.00000000
    0.50000000    0.50000000    0.16666667
    0.50000000    0.50000000    0.33333333
    0.50000000    0.50000000    0.50000000
    0.50000000    0.50000000    0.66666667
    0.50000000    0.50000000    0.83333333
    0.50000000    0.66666667    0.00000000
    0.50000000    0.66666667    0.16666667
    0.50000000    0.66666667    0.33333333
    0.50000000    0.66666667    0.50000000
    0.50000000    0.66666667    0.66666667
    0.50000000    0.66666667    0.83333333
    0.50000000    0.83333333    0.00000000
    0.50000000    0.83333333    0.16666667
    0.50000000    0.83333333    0.33333333
    0.50000000    0.83333333    0.50000000
    0.50000000    0.83333333    0.66666667
    0.50000000    0.83333333    0.83333333
    0.66666667    0.00000000    0.00000000
    0.66666667    0.00000000    0.16666667
    0.66666667    0.00000000    0.33333333
    0.66666667    0.00000000    0.50000000
    0.66666667    0.00000000    0.66666667
    0.66666667    0.00000000    0.83333333
    0.66666667    0.16666667    0.00000000
    0.66666667    0.16666667    0.16666667
    0.66666667    0.16666667    0.33333333
    0.66666667    0.16666667    0.50000000
    0.66666667    0.16666667    0.66666667
    0.66666667    0.16666667    0.83333333
    0.66666667    0.33333333    0.00000000
    0.66666667    0.33333333    0.16666667
    0.66666667    0.33333333    0.33333333
    0.66666667    0.33333333    0.50000000
    0.66666667    0.33333333    0.66666667
    0.66666667    0.33333333    0.83333333
    0.66666667    0.50000000    0.00000000
    0.66666667    0.50000000    0.16666667
    0.66666667    0.50000000    0.33333333
    0.66666667    0.50000000    0.50000000
    0.66666667    0.50000000    0.66666667
    0.66666667    0.50000000    0.83333333
    0.66666667    0.66666667    0.00000000
    0.66666667    0.66666667    0.16666667
    0.66666667    0.66666667    0.33333333
    0.66666667    0.66666667    0.50000000
    0.66666667    0.66666667    0.66666667
    0.66666667    0.66666667    0.83333333
    0.66666667    0.83333333    0.00000000
    0.66666667    0.83333333    0.16666667
    0.66666667    0.83333333    0.33333333
    0.66666667    0.83333333    0.50000000
    0.66666667    0.83333333    0.66666667
    0.66666667    0.83333333    0.83333333
    0.83333333    0.00000000    0.00000000
    0.83333333    0.00000000    0.16666667
    0.83333333    0.00000000    0.33333333
    0.83333333    0.00000000    0.50000000
    0.83333333    0.00000000    0.66666667
    0.83333333    0.00000000    0.83333333
    0.83333333    0.16666667    0.00000000
    0.83333333    0.16666667    0.16666667
    0.83333333    0.16666667    0.33333333
    0.83333333    0.16666667    0.50000000
    0.83333333    0.16666667    0.66666667
    0.83333333    0.16666667    0.83333333
    0.83333333    0.33333333    0.00000000
    0.83333333    0.33333333    0.16666667
    0.83333333    0.33333333    0.33333333
    0.83333333    0.33333333    0.50000000
    0.83333333    0.33333333    0.66666667
    0.83333333    0.33333333    0.83333333
    0.83333333    0.50000000    0.00000000
    0.83333333    0.50000000    0.16666667
    0.83333333    0.50000000    0.33333333
    0.83333333    0.50000000    0.50000000
    0.83333333    0.50000000    0.66666667
    0.83333333    0.50000000    0.83333333
    0.83333333    0.66666667    0.00000000
    0.83333333    0.66666667    0.16666667
    0.83333333    0.66666667    0.33333333
    0.83333333    0.66666667    0.50000000
    0.83333333    0.66666667    0.66666667
    0.83333333    0.66666667    0.83333333
    0.83333333    0.83333333    0.00000000
    0.83333333    0.83333333    0.16666667
    0.83333333    0.83333333    0.33333333
    0.83333333    0.83333333    0.50000000
    0.83333333    0.83333333    0.66666667
    0.83333333    0.83333333    0.83333333
end kpoints

begin projections
     5
   0.33333    0.66667    0.50000     1  1  1
    0.0000000  0.0000000  1.0000000   1.0000000  0.0000000  0.0000000    1.00
   0.66667    0.33333    0.50000     1  1  1
    0.0000000  0.0000000  1.0000000   1.0000000  0.0000000  0.0000000    1.00
   0.50000    1.00000    0.50000     0  1  1
    0.0000000  0.0000000  1.0000000   1.0000000  0.0000000  0.0000000    1.00
   0.00000    0.50000    0.50000     0  1  1
    0.0000000  0.0000000  1.0000000   1.0000000  0.0000000  0.0000000    1.00
   0.50000    0.50000    0.50000     0  1  1
    0.0000000  0.0000000  1.0000000   1.0000000  0.0000000  0.0000000    1.00
end projections

begin nnkpts
   8
     1     2      0   0   0
     1     6      0   0  -1
     1     7      0   0   0
     1    37      0   0   0
     1    31      0  -1   0
     1    67      0  -1   0
     1   181     -1   0   0
     1   187     -1   0   0
     2     1      0   0   0
     2     3      0   0   0
     2     8      0   0   0
     2    38      0   0   0
     2    32      0  -1   0
     2    68      0  -1   0
     2   182     -1   0   0
     2   188     -1   0   0
     3     2      0   0   0
     3     4      0   0   0
     3     9      0   0   0
     3    39      0   0   0
     3    33      0  -1   0
     3    69      0  -1   0
     3   183     -1   0   0
     3   189     -1   0   0
     4     3      0   0   0
     4     5      0   0   0
     4    10      0   0   0
     4    40      0   0   0
     4    34      0  -1   0
     4    70      0  -1   0
     4   184     -1   0   0
     4   190     -1   0   0
     5     4      0   0   0
     5     6      0   0   0
     5    11      0   0   0
     5    41      0   0   0
     5    35      0  -1   0
     5    71      0  -1   0
     5   185     -1   0   0
     5   191     -1   0   0
     6     5      0   0   0
     6     1      0   0   1
     6    12      0   0   0
     6    42      0   0   0
     6    36      0  -1   0
     6    72      0  -1   0
     6   186     -1   0   0
     6   192     -1   0   0
     7     8      0   0   0
     7    12      0   0  -1
     7     1      0   0   0
     7    13      0   0   0
     7    37      0   0   0
     7    43      0   0   0
     7   187     -1   0   0
     7   193     -1   0   0
     8     7      0   0   0
     8     9      0   0   0
     8     2      0   0   0
     8    14      0   0   0
     8    38      0   0   0
     8    44      0   0   0
     8   188     -1   0   0
     8   194     -1   0   0
     9     8      0   0   0
     9    10      0   0   0
     9     3      0   0   0
     9    15      0   0   0
     9    39      0   0   0
     9    45      0   0   0
     9   189     -1   0   0
     9   195     -1   0   0
    10     9      0   0   0
    10    11      0   0   0
    10     4      0   0   0
    10    16      0   0   0
    10    40      0   0   0
    10    46      0   0   0
    10   190     -1   0   0
    10   196     -1   0   0
    11    10      0   0   0
    11    12      0   0   0
    11     5      0   0   0
    11    17      0   0   0
    11    41      0   0   0
    11    47      0   0   0
    11   191     -1   0   0
    11   197     -1   0   0
    12    11      0   0   0
    12     7      0   0   1
    12     6      0   0   0
    12    18      0   0   0
    12    42      0   0   0
    12    48      0   0   0
    12   192     -1   0   0
    12   198     -1   0   0
    13    14      0   0   0
    13    18      0   0  -1
    13     7      0   0   0
    13    19      0   0   0
    13    43      0   0   0
    13    49      0   0   0
    13   193     -1   0   0
    13   199     -1   0   0
    14    13      0   0   0
    14    15      0   0   0
    14     8      0   0   0
    14    20      0   0   0
    14    44      0   0   0
    14    50      0   0   0
    14   194     -1   0   0
    14   200     -1   0   0
    15    14      0   0   0
    15    16      0   0   0
    15     9      0   0   0
    15    21      0   0   0
    15    45      0   0   0
    15    51      0   0   0
    15   195     -1   0   0
    15   201     -1   0   0
    16    15      0   0   0
    16    17      0   0   0
    16    10      0   0   0
    16    22      0   0   0
    16    46      0   0   0
    16    52      0   0   0
    16   196     -1   0   0
    16   202     -1   0   0
    17    16      0   0   0
    17    18      0   0   0
    17    11      0   0   0
    17    23      0   0   0
    17    47      0   0   0
    17    53      0   0   0
    17   197     -1   0   0
    17   203     -1   0   0
    18    17      0   0   0
    18    13      0   0   1
    18    12      0   0   0
    18    24      0   0   0
    18    48      0   0   0
    18    54      0   0   0
    18   198     -1   0   0
    18   204     -1   0   0
    19    20      0   0   0
    19    24      0   0  -1
    19    13      0   0   0
    19    25      0   0   0
    19    49      0   0   0
    19    55      0   0   0
    19   199     -1   0   0
    19   205     -1   0   0
    20    19      0   0   0
    20    21      0   0   0
    20    14      0   0   0
    20    26      0   0   0
    20    50      0   0   0
    20    56      0   0   0
    20   200     -1   0   0
    20   206     -1   0   0
    21    20      0   0   0
    21    22      0   0   0
    21    15      0   0   0
    21    27      0   0   0
    21    51      0   0   0
    21    57      0   0   0
    21   201     -1   0   0
    21   207     -1   0   0
    22    21      0   0   0
    22    23      0   0   0
    22    16      0   0   0
    22    28      0   0   0
    22    52      0   0   0
    22    58      0   0   0
    22   202     -1   0   0
    22   208     -1   0   0
    23    22      0   0   0
    23    24      0   0   0
    23    17      0   0   0
    23    29      0   0   0
    23    53      0   0   0
    23    59      0   0   0
    23   203     -1   0   0
    23   209     -1   0   0
    24    23      0   0   0
    24    19      0   0   1
    24    18      0   0   0
    24    30      0   0   0
    24    54      0   0   0
    24    60      0   0   0
    24   204     -1   0   0
    24   210     -1   0   0
    25    26      0   0   0
    25    30      0   0  -1
    25    19      0   0   0
    25    31      0   0   0
    25    55      0   0   0
    25    61      0   0   0
    25   205     -1   0   0
    25   211     -1   0   0
    26    25      0   0   0
    26    27      0   0   0
    26    20      0   0   0
    26    32      0   0   0
    26    56      0   0   0
    26    62      0   0   0
    26   206     -1   0   0
    26   212     -1   0   0
    27    26      0   0   0
    27    28      0   0   0
    27    21      0   0   0
    27    33      0   0   0
    27    57      0   0   0
    27    63      0   0   0
    27   207     -1   0   0
    27   213     -1   0   0
    28    27      0   0   0
    28    29      0   0   0
    28    22      0   0   0
    28    34      0   0   0
    28    58      0   0   0
    28    64      0   0   0
    28   208     -1   0   0
    28   214     -1   0   0
    29    28      0   0   0
    29    30      0   0   0
    29    23      0   0   0
    29    35      0   0   0
    29    59      0   0   0
    29    65      0   0   0
    29   209     -1   0   0
    29   215     -1   0   0
    30    29      0   0   0
    30    25      0   0   1
    30    24      0   0   0
    30    36      0   0   0
    30    60      0   0   0
    30    66      0   0   0
    30   210     -1   0   0
    30   216     -1   0   0
    31    32      0   0   0
    31    36      0   0  -1
    31    25      0   0   0
    31    61      0   0   0
    31    67      0   0   0
    31     1      0   1   0
    31   181     -1   1   0
    31   211     -1   0   0
    32    31      0   0   0
    32    33      0   0   0
    32    26      0   0   0
    32    62      0   0   0
    32    68      0   0   0
    32     2      0   1   0
    32   182     -1   1   0
    32   212     -1   0   0
    33    32      0   0   0
    33    34      0   0   0
    33    27      0   0   0
    33    63      0   0   0
    33    69      0   0   0
    33     3      0   1   0
    33   183     -1   1   0
    33   213     -1   0   0
    34    33      0   0   0
    34    35      0   0   0
    34    28      0   0   0
    34    64      0   0   0
    34    70      0   0   0
    34     4      0   1   0
    34   184     -1   1   0
    34   214     -1   0   0
    35    34      0   0   0
    35    36      0   0   0
    35    29      0   0   0
    35    65      0   0   0
    35    71      0   0   0
    35     5      0   1   0
    35   185     -1   1   0
    35   215     -1   0   0
    36    35      0   0   0
    36    31      0   0   1
    36    30      0   0   0
    36    66      0   0   0
    36    72      0   0   0
    36     6      0   1   0
    36   186     -1   1   0
    36   216     -1   0   0
    37    38      0   0   0
    37    42      0   0  -1
    37     1      0   0   0
    37     7      0   0   0
    37    43      0   0   0
    37    73      0   0   0
    37    67      0  -1   0
    37   103      0  -1   0
    38    37      0   0   0
    38    39      0   0   0
    38     2      0   0   0
    38     8      0   0   0
    38    44      0   0   0
    38    74      0   0   0
    38    68      0  -1   0
    38   104      0  -1   0
    39    38      0   0   0
    39    40      0   0   0
    39     3      0   0   0
    39     9      0   0   0
    39    45      0   0   0
    39    75      0   0   0
    39    69      0  -1   0
    39   105      0  -1   0
    40    39      0   0   0
    40    41      0   0   0
    40     4      0   0   0
    40    10      0   0   0
    40    46      0   0   0
    40    76      0   0   0
    40    70      0  -1   0
    40   106      0  -1   0
    41    40      0   0   0
    41    42      0   0   0
    41     5      0   0   0
    41    11      0   0   0
    41    47      0   0   0
    41    77      0   0   0
    41    71      0  -1   0
    41   107      0  -1   0
    42    41      0   0   0
    42    37      0   0   1
    42     6      0   0   0
    42    12      0   0   0
    42    48      0   0   0
    42    78      0   0   0
    42    72      0  -1   0
    42   108      0  -1   0
    43    44      0   0   0
    43    48      0   0  -1
    43     7      0   0   0
    43    13      0   0   0
    43    37      0   0   0
    43    49      0   0   0
    43    73      0   0   0
    43    79      0   0   0
    44    43      0   0   0
    44    45      0   0   0
    44     8      0   0   0
    44    14      0   0   0
    44    38      0   0   0
    44    50      0   0   0
    44    74      0   0   0
    44    80      0   0   0
    45    44      0   0   0
    45    46      0   0   0
    45     9      0   0   0
    45    15      0   0   0
    45    39      0   0   0
    45    51      0   0   0
    45    75      0   0   0
    45    81      0   0   0
    46    45      0   0   0
    46    47      0   0   0
    46    10      0   0   0
    46    16      0   0   0
    46    40      0   0   0
    46    52      0   0   0
    46    76      0   0   0
    46    82      0   0   0
    47    46      0   0   0
    47    48      0   0   0
    47    11      0   0   0
    47    17      0   0   0
    47    41      0   0   0
    47    53      0   0   0
    47    77      0   0   0
    47    83      0   0   0
    48    47      0   0   0
    48    43      0   0   1
    48    12      0   0   0
    48    18      0   0   0
    48    42      0   0   0
    48    54      0   0   0
    48    78      0   0   0
    48    84      0   0   0
    49    50      0   0   0
    49    54      0   0  -1
    49    13      0   0   0
    49    19      0   0   0
    49    43      0   0   0
    49    55      0   0   0
    49    79      0   0   0
    49    85      0   0   0
    50    49      0   0   0
    50    51      0   0   0
    50    14      0   0   0
    50    20      0   0   0
    50    44      0   0   0
    50    56      0   0   0
    50    80      0   0   0
    50    86      0   0   0
    51    50      0   0   0
    51    52      0   0   0
    51    15      0   0   0
    51    21      0   0   0
    51    45      0   0   0
    51    57      0   0   0
    51    81      0   0   0
    51    87      0   0   0
    52    51      0   0   0
    52    53      0   0   0
    52    16      0   0   0
    52    22      0   0   0
    52    46      0   0   0
    52    58      0   0   0
    52    82      0   0   0
    52    88      0   0   0
    53    52      0   0   0
    53    54      0   0   0
    53    17      0   0   0
    53    23      0   0   0
    53    47      0   0   0
    53    59      0   0   0
    53    83      0   0   0
    53    89      0   0   0
    54    53      0   0   0
    54    49      0   0   1
    54    18      0   0   0
    54    24      0   0   0
    54    48      0   0   0
    54    60      0   0   0
    54    84      0   0   0
    54    90      0   0   0
    55    56      0   0   0
    55    60      0   0  -1
    55    19      0   0   0
    55    25      0   0   0
    55    49      0   0   0
    55    61      0   0   0
    55    85      0   0   0
    55    91      0   0   0
    56    55      0   0   0
    56    57      0   0   0
    56    20      0   0   0
    56    26      0   0   0
    56    50      0   0   0
    56    62      0   0   0
    56    86      0   0   0
    56    92      0   0   0
    57    56      0   0   0
    57    58      0   0   0
    57    21      0   0   0
    57    27      0   0   0
    57    51      0   0   0
    57    63      0   0   0
    57    87      0   0   0
    57    93      0   0   0
    58    57      0   0   0
    58    59      0   0   0
    58    22      0   0   0
    58    28      0   0   0
    58    52      0   0   0
    58    64      0   0   0
    58    88      0   0   0
    58    94      0   0   0
    59    58      0   0   0
    59    60      0   0   0
    59    23      0   0   0
    59    29      0   0   0
    59    53      0   0   0
    59    65      0   0   0
    59    89      0   0   0
    59    95      0   0   0
    60    59      0   0   0
    60    55      0   0   1
    60    24      0   0   0
    60    30      0   0   0
    60    54      0   0   0
    60    66      0   0   0
    60    90      0   0   0
    60    96      0   0   0
    61    62      0   0   0
    61    66      0   0  -1
    61    25      0   0   0
    61    31      0   0   0
    61    55      0   0   0
    61    67      0   0   0
    61    91      0   0   0
    61    97      0   0   0
    62    61      0   0   0
    62    63      0   0   0
    62    26      0   0   0
    62    32      0   0   0
    62    56      0   0   0
    62    68      0   0   0
    62    92      0   0   0
    62    98      0   0   0
    63    62      0   0   0
    63    64      0   0   0
    63    27      0   0   0
    63    33      0   0   0
    63    57      0   0   0
    63    69      0   0   0
    63    93      0   0   0
    63    99      0   0   0
    64    63      0   0   0
    64    65      0   0   0
    64    28      0   0   0
    64    34      0   0   0
    64    58      0   0   0
    64    70      0   0   0
    64    94      0   0   0
    64   100      0   0   0
    65    64      0   0   0
    65    66      0   0   0
    65    29      0   0   0
    65    35      0   0   0
    65    59      0   0   0
    65    71      0   0   0
    65    95      0   0   0
    65   101      0   0   0
    66    65      0   0   0
    66    61      0   0   1
    66    30      0   0   0
    66    36      0   0   0
    66    60      0   0   0
    66    72      0   0   0
    66    96      0   0   0
    66   102      0   0   0
    67    68      0   0   0
    67    72      0   0  -1
    67    31      0   0   0
    67    61      0   0   0
    67    97      0   0   0
    67   103      0   0   0
    67     1      0   1   0
    67    37      0   1   0
    68    67      0   0   0
    68    69      0   0   0
    68    32      0   0   0
    68    62      0   0   0
    68    98      0   0   0
    68   104      0   0   0
    68     2      0   1   0
    68    38      0   1   0
    69    68      0   0   0
    69    70      0   0   0
    69    33      0   0   0
    69    63      0   0   0
    69    99      0   0   0
    69   105      0   0   0
    69     3      0   1   0
    69    39      0   1   0
    70    69      0   0   0
    70    71      0   0   0
    70    34      0   0   0
    70    64      0   0   0
    70   100      0   0   0
    70   106      0   0   0
    70     4      0   1   0
    70    40      0   1   0
    71    70      0   0   0
    71    72      0   0   0
    71    35      0   0   0
    71    65      0   0   0
    71   101      0   0   0
    71   107      0   0   0
    71     5      0   1   0
    71    41      0   1   0
    72    71      0   0   0
    72    67      0   0   1
    72    36      0   0   0
    72    66      0   0   0
    72   102      0   0   0
    72   108      0   0   0
    72     6      0   1   0
    72    42      0   1   0
    73    74      0   0   0
    73    78      0   0  -1
    73    37      0   0   0
    73    43      0   0   0
    73    79      0   0   0
    73   109      0   0   0
    73   103      0  -1   0
    73   139      0  -1   0
    74    73      0   0   0
    74    75      0   0   0
    74    38      0   0   0
    74    44      0   0   0
    74    80      0   0   0
    74   110      0   0   0
    74   104      0  -1   0
    74   140      0  -1   0
    75    74      0   0   0
    75    76      0   0   0
    75    39      0   0   0
    75    45      0   0   0
    75    81      0   0   0
    75   111      0   0   0
    75   105      0  -1   0
    75   141      0  -1   0
    76    75      0   0   0
    76    77      0   0   0
    76    40      0   0   0
    76    46      0   0   0
    76    82      0   0   0
    76   112      0   0   0
    76   106      0  -1   0
    76   142      0  -1   0
    77    76      0   0   0
    77    78      0   0   0
    77    41      0   0   0
    77    47      0   0   0
    77    83      0   0   0
    77   113      0   0   0
    77   107      0  -1   0
    77   143      0  -1   0
    78    77      0   0   0
    78    73      0   0   1
    78    42      0   0   0
    78    48      0   0   0
    78    84      0   0   0
    78   114      0   0   0
    78   108      0  -1   0
    78   144      0  -1   0
    79    80      0   0   0
    79    84      0   0  -1
    79    43      0   0   0
    79    49      0   0   0
    79    73      0   0   0
    79    85      0   0   0
    79   109      0   0   0
    79   115      0   0   0
    80    79      0   0   0
    80    81      0   0   0
    80    44      0   0   0
    80    50      0   0   0
    80    74      0   0   0
    80    86      0   0   0
    80   110      0   0   0
    80   116      0   0   0
    81    80      0   0   0
    81    82      0   0   0
    81    45      0   0   0
    81    51      0   0   0
    81    75      0   0   0
    81    87      0   0   0
    81   111      0   0   0
    81   117      0   0   0
    82    81      0   0   0
    82    83      0   0   0
    82    46      0   0   0
    82    52      0   0   0
    82    76      0   0   0
    82    88      0   0   0
    82   112      0   0   0
    82   118      0   0   0
    83    82      0   0   0
    83    84      0   0   0
    83    47      0   0   0
    83    53      0   0   0
    83    77      0   0   0
    83    89      0   0   0
    83   113      0   0   0
    83   119      0   0   0
    84    83      0   0   0
    84    79      0   0   1
    84    48      0   0   0
    84    54      0   0   0
    84    78      0   0   0
    84    90      0   0   0
    84   114      0   0   0
    84   120      0   0   0
    85    86      0   0   0
    85    90      0   0  -1
    85    49      0   0   0
    85    55      0   0   0
    85    79      0   0   0
    85    91      0   0   0
    85   115      0   0   0
    85   121      0   0   0
    86    85      0   0   0
    86    87      0   0   0
    86    50      0   0   0
    86    56      0   0   0
    86    80      0   0   0
    86    92      0   0   0
    86   116      0   0   0
    86   122      0   0   0
    87    86      0   0   0
    87    88      0   0   0
    87    51      0   0   0
    87    57      0   0   0
    87    81      0   0   0
    87    93      0   0   0
    87   117      0   0   0
    87   123      0   0   0
    88    87      0   0   0
    88    89      0   0   0
    88    52      0   0   0
    88    58      0   0   0
    88    82      0   0   0
    88    94      0   0   0
    88   118      0   0   0
    88   124      0   0   0
    89    88      0   0   0
    89    90      0   0   0
    89    53      0   0   0
    89    59      0   0   0
    89    83      0   0   0
    89    95      0   0   0
    89   119      0   0   0
    89   125      0   0   0
    90    89      0   0   0
    90    85      0   0   1
    90    54      0   0   0
    90    60      0   0   0
    90    84      0   0   0
    90    96      0   0   0
    90   120      0   0   0
    90   126      0   0   0
    91    92      0   0   0
    91    96      0   0  -1
    91    55      0   0   0
    91    61      0   0   0
    91    85      0   0   0
    91    97      0   0   0
    91   121      0   0   0
    91   127      0   0   0
    92    91      0   0   0
    92    93      0   0   0
    92    56      0   0   0
    92    62      0   0   0
    92    86      0   0   0
    92    98      0   0   0
    92   122      0   0   0
    92   128      0   0   0
    93    92      0   0   0
    93    94      0   0   0
    93    57      0   0   0
    93    63      0   0   0
    93    87      0   0   0
    93    99      0   0   0
    93   123      0   0   0
    93   129      0   0   0
    94    93      0   0   0
    94    95      0   0   0
    94    58      0   0   0
    94    64      0   0   0
    94    88      0   0   0
    94   100      0   0   0
    94   124      0   0   0
    94   130      0   0   0
    95    94      0   0   0
    95    96      0   0   0
    95    59      0   0   0
    95    65      0   0   0
    95    89      0   0   0
    95   101      0   0   0
    95   125      0   0   0
    95   131      0   0   0
    96    95      0   0   0
    96    91      0   0   1
    96    60      0   0   0
    96    66      0   0   0
    96    90      0   0   0
    96   102      0   0   0
    96   126      0   0   0
    96   132      0   0   0
    97    98      0   0   0
    97   102      0   0  -1
    97    61      0   0   0
    97    67      0   0   0
    97    91      0   0   0
    97   103      0   0   0
    97   127      0   0   0
    97   133      0   0   0
    98    97      0   0   0
    98    99      0   0   0
    98    62      0   0   0
    98    68      0   0   0
    98    92      0   0   0
    98   104      0   0   0
    98   128      0   0   0
    98   134      0   0   0
    99    98      0   0   0
    99   100      0   0   0
    99    63      0   0   0
    99    69      0   0   0
    99    93      0   0   0
    99   105      0   0   0
    99   129      0   0   0
    99   135      0   0   0
   100    99      0   0   0
   100   101      0   0   0
   100    64      0   0   0
   100    70      0   0   0
   100    94      0   0   0
   100   106      0   0   0
   100   130      0   0   0
   100   136      0   0   0
   101   100      0   0   0
   101   102      0   0   0
   101    65      0   0   0
   101    71      0   0   0
   101    95      0   0   0
   101   107      0   0   0
   101   131      0   0   0
   101   137      0   0   0
   102   101      0   0   0
   102    97      0   0   1
   102    66      0   0   0
   102    72      0   0   0
   102    96      0   0   0
   102   108      0   0   0
   102   132      0   0   0
   102   138      0   0   0
   103   104      0   0   0
   103   108      0   0  -1
   103    67      0   0   0
   103    97      0   0   0
   103   133      0   0   0
   103   139      0   0   0
   103    37      0   1   0
   103    73      0   1   0
   104   103      0   0   0
   104   105      0   0   0
   104    68      0   0   0
   104    98      0   0   0
   104   134      0   0   0
   104   140      0   0   0
   104    38      0   1   0
   104    74      0   1   0
   105   104      0   0   0
   105   106      0   0   0
   105    69      0   0   0
   105    99      0   0   0
   105   135      0   0   0
   105   141      0   0   0
   105    39      0   1   0
   105    75      0   1   0
   106   105      0   0   0
   106   107      0   0   0
   106    70      0   0   0
   106   100      0   0   0
   106   136      0   0   0
   106   142      0   0   0
   106    40      0   1   0
   106    76      0   1   0
   107   106      0   0   0
   107   108      0   0   0
   107    71      0   0   0
   107   101      0   0   0
   107   137      0   0   0
   107   143      0   0   0
   107    41      0   1   0
   107    77      0   1   0
   108   107      0   0   0
   108   103      0   0   1
   108    72      0   0   0
   108   102      0   0   0
   108   138      0   0   0
   108   144      0   0   0
   108    42      0   1   0
   108    78      0   1   0
   109   110      0   0   0
   109   114      0   0  -1
   109    73      0   0   0
   109    79      0   0   0
   109   115      0   0   0
   109   145      0   0   0
   109   139      0  -1   0
   109   175      0  -1   0
   110   109      0   0   0
   110   111      0   0   0
   110    74      0   0   0
   110    80      0   0   0
   110   116      0   0   0
   110   146      0   0   0
   110   140      0  -1   0
   110   176      0  -1   0
   111   110      0   0   0
   111   112      0   0   0
   111    75      0   0   0
   111    81      0   0   0
   111   117      0   0   0
   111   147      0   0   0
   111   141      0  -1   0
   111   177      0  -1   0
   112   111      0   0   0
   112   113      0   0   0
   112    76      0   0   0
   112    82      0   0   0
   112   118      0   0   0
   112   148      0   0   0
   112   142      0  -1   0
   112   178      0  -1   0
   113   112      0   0   0
   113   114      0   0   0
   113    77      0   0   0
   113    83      0   0   0
   113   119      0   0   0
   113   149      0   0   0
   113   143      0  -1   0
   113   179      0  -1   0
   114   113      0   0   0
   114   109      0   0   1
   114    78      0   0   0
   114    84      0   0   0
   114   120      0   0   0
   114   150      0   0   0
   114   144      0  -1   0
   114   180      0  -1   0
   115   116      0   0   0
   115   120      0   0  -1
   115    79      0   0   0
   115    85      0   0   0
   115   109      0   0   0
   115   121      0   0   0
   115   145      0   0   0
   115   151      0   0   0
   116   115      0   0   0
   116   117      0   0   0
   116    80      0   0   0
   116    86      0   0   0
   116   110      0   0   0
   116   122      0   0   0
   116   146      0   0   0
   116   152      0   0   0
   117   116      0   0   0
   117   118      0   0   0
   117    81      0   0   0
   117    87      0   0   0
   117   111      0   0   0
   117   123      0   0   0
   117   147      0   0   0
   117   153      0   0   0
   118   117      0   0   0
   118   119      0   0   0
   118    82      0   0   0
   118    88      0   0   0
   118   112      0   0   0
   118   124      0   0   0
   118   148      0   0   0
   118   154      0   0   0
   119   118      0   0   0
   119   120      0   0   0
   119    83      0   0   0
   119    89      0   0   0
   119   113      0   0   0
   119   125      0   0   0
   119   149      0   0   0
   119   155      0   0   0
   120   119      0   0   0
   120   115      0   0   1
   120    84      0   0   0
   120    90      0   0   0
   120   114      0   0   0
   120   126      0   0   0
   120   150      0   0   0
   120   156      0   0   0
   121   122      0   0   0
   121   126      0   0  -1
   121    85      0   0   0
   121    91      0   0   0
   121   115      0   0   0
   121   127      0   0   0
   121   151      0   0   0
   121   157      0   0   0
   122   121      0   0   0
   122   123      0   0   0
   122    86      0   0   0
   122    92      0   0   0
   122   116      0   0   0
   122   128      0   0   0
   122   152      0   0   0
   122   158      0   0   0
   123   122      0   0   0
   123   124      0   0   0
   123    87      0   0   0
   123    93      0   0   0
   123   117      0   0   0
   123   129      0   0   0
   123   153      0   0   0
   123   159      0   0   0
   124   123      0   0   0
   124   125      0   0   0
   124    88      0   0   0
   124    94      0   0   0
   124   118      0   0   0
   124   130      0   0   0
   124   154      0   0   0
   124   160      0   0   0
   125   124      0   0   0
   125   126      0   0   0
   125    89      0   0   0
   125    95      0   0   0
   125   119      0   0   0
   125   131      0   0   0
   125   155      0   0   0
   125   161      0   0   0
   126   125      0   0   0
   126   121      0   0   1
   126    90      0   0   0
   126    96      0   0   0
   126   120      0   0   0
   126   132      0   0   0
   126   156      0   0   0
   126   162      0   0   0
   127   128      0   0   0
   127   132      0   0  -1
   127    91      0   0   0
   127    97      0   0   0
   127   121      0   0   0
   127   133      0   0   0
   127   157      0   0   0
   127   163      0   0   0
   128   127      0   0   0
   128   129      0   0   0
   128    92      0   0   0
   128    98      0   0   0
   128   122      0   0   0
   128   134      0   0   0
   128   158      0   0   0
   128   164      0   0   0
   129   128      0   0   0
   129   130      0   0   0
   129    93      0   0   0
   129    99      0   0   0
   129   123      0   0   0
   129   135      0   0   0
   129   159      0   0   0
   129   165      0   0   0
   130   129      0   0   0
   130   131      0   0   0
   130    94      0   0   0
   130   100      0   0   0
   130   124      0   0   0
   130   136      0   0   0
   130   160      0   0   0
   130   166      0   0   0
   131   130      0   0   0
   131   132      0   0   0
   131    95      0   0   0
   131   101      0   0   0
   131   125      0   0   0
   131   137      0   0   0
   131   161      0   0   0
   131   167      0   0   0
   132   131      0   0   0
   132   127      0   0   1
   132    96      0   0   0
   132   102      0   0   0
   132   126      0   0   0
   132   138      0   0   0
   132   162      0   0   0
   132   168      0   0   0
   133   134      0   0   0
   133   138      0   0  -1
   133    97      0   0   0
   133   103      0   0   0
   133   127      0   0   0
   133   139      0   0   0
   133   163      0   0   0
   133   169      0   0   0
   134   133      0   0   0
   134   135      0   0   0
   134    98      0   0   0
   134   104      0   0   0
   134   128      0   0   0
   134   140      0   0   0
   134   164      0   0   0
   134   170      0   0   0
   135   134      0   0   0
   135   136      0   0   0
   135    99      0   0   0
   135   105      0   0   0
   135   129      0   0   0
   135   141      0   0   0
   135   165      0   0   0
   135   171      0   0   0
   136   135      0   0   0
   136   137      0   0   0
   136   100      0   0   0
   136   106      0   0   0
   136   130      0   0   0
   136   142      0   0   0
   136   166      0   0   0
   136   172      0   0   0
   137   136      0   0   0
   137   138      0   0   0
   137   101      0   0   0
   137   107      0   0   0
   137   131      0   0   0
   137   143      0   0   0
   137   167      0   0   0
   137   173      0   0   0
   138   137      0   0   0
   138   133      0   0   1
   138   102      0   0   0
   138   108      0   0   0
   138   132      0   0   0
   138   144      0   0   0
   138   168      0   0   0
   138   174      0   0   0
   139   140      0   0   0
   139   144      0   0  -1
   139   103      0   0   0
   139   133      0   0   0
   139   169      0   0   0
   139   175      0   0   0
   139    73      0   1   0
   139   109      0   1   0
   140   139      0   0   0
   140   141      0   0   0
   140   104      0   0   0
   140   134      0   0   0
   140   170      0   0   0
   140   176      0   0   0
   140    74      0   1   0
   140   110      0   1   0
   141   140      0   0   0
   141   142      0   0   0
   141   105      0   0   0
   141   135      0   0   0
   141   171      0   0   0
   141   177      0   0   0
   141    75      0   1   0
   141   111      0   1   0
   142   141      0   0   0
   142   143      0   0   0
   142   106      0   0   0
   142   136      0   0   0
   142   172      0   0   0
   142   178      0   0   0
   142    76      0   1   0
   142   112      0   1   0
   143   142      0   0   0
   143   144      0   0   0
   143   107      0   0   0
   143   137      0   0   0
   143   173      0   0   0
   143   179      0   0   0
   143    77      0   1   0
   143   113      0   1   0
   144   143      0   0   0
   144   139      0   0   1
   144   108      0   0   0
   144   138      0   0   0
   144   174      0   0   0
   144   180      0   0   0
   144    78      0   1   0
   144   114      0   1   0
   145   146      0   0   0
   145   150      0   0  -1
   145   109      0   0   0
   145   115      0   0   0
   145   151      0   0   0
   145   181      0   0   0
   145   175      0  -1   0
   145   211      0  -1   0
   146   145      0   0   0
   146   147      0   0   0
   146   110      0   0   0
   146   116      0   0   0
   146   152      0   0   0
   146   182      0   0   0
   146   176      0  -1   0
   146   212      0  -1   0
   147   146      0   0   0
   147   148      0   0   0
   147   111      0   0   0
   147   117      0   0   0
   147   153      0   0   0
   147   183      0   0   0
   147   177      0  -1   0
   147   213      0  -1   0
   148   147      0   0   0
   148   149      0   0   0
   148   112      0   0   0
   148   118      0   0   0
   148   154      0   0   0
   148   184      0   0   0
   148   178      0  -1   0
   148   214      0  -1   0
   149   148      0   0   0
   149   150      0   0   0
   149   113      0   0   0
   149   119      0   0   0
   149   155      0   0   0
   149   185      0   0   0
   149   179      0  -1   0
   149   215      0  -1   0
   150   149      0   0   0
   150   145      0   0   1
   150   114      0   0   0
   150   120      0   0   0
   150   156      0   0   0
   150   186      0   0   0
   150   180      0  -1   0
   150   216      0  -1   0
   151   152      0   0   0
   151   156      0   0  -1
   151   115      0   0   0
   151   121      0   0   0
   151   145      0   0   0
   151   157      0   0   0
   151   181      0   0   0
   151   187      0   0   0
   152   151      0   0   0
   152   153      0   0   0
   152   116      0   0   0
   152   122      0   0   0
   152   146      0   0   0
   152   158      0   0   0
   152   182      0   0   0
   152   188      0   0   0
   153   152      0   0   0
   153   154      0   0   0
   153   117      0   0   0
   153   123      0   0   0
   153   147      0   0   0
   153   159      0   0   0
   153   183      0   0   0
   153   189      0   0   0
   154   153      0   0   0
   154   155      0   0   0
   154   118      0   0   0
   154   124      0   0   0
   154   148      0   0   0
   154   160      0   0   0
   154   184      0   0   0
   154   190      0   0   0
   155   154      0   0   0
   155   156      0   0   0
   155   119      0   0   0
   155   125      0   0   0
   155   149      0   0   0
   155   161      0   0   0
   155   185      0   0   0
   155   191      0   0   0
   156   155      0   0   0
   156   151      0   0   1
   156   120      0   0   0
   156   126      0   0   0
   156   150      0   0   0
   156   162      0   0   0
   156   186      0   0   0
   156   192      0   0   0
   157   158      0   0   0
   157   162      0   0  -1
   157   121      0   0   0
   157   127      0   0   0
   157   151      0   0   0
   157   163      0   0   0
   157   187      0   0   0
   157   193      0   0   0
   158   157      0   0   0
   158   159      0   0   0
   158   122      0   0   0
   158   128      0   0   0
   158   152      0   0   0
   158   164      0   0   0
   158   188      0   0   0
   158   194      0   0   0
   159   158      0   0   0
   159   160      0   0   0
   159   123      0   0   0
   159   129      0   0   0
   159   153      0   0   0
   159   165      0   0   0
   159   189      0   0   0
   159   195      0   0   0
   160   159      0   0   0
   160   161      0   0   0
   160   124      0   0   0
   160   130      0   0   0
   160   154      0   0   0
   160   166      0   0   0
   160   190      0   0   0
   160   196      0   0   0
   161   160      0   0   0
   161   162      0   0   0
   161   125      0   0   0
   161   131      0   0   0
   161   155      0   0   0
   161   167      0   0   0
   161   191      0   0   0
   161   197      0   0   0
   162   161      0   0   0
   162   157      0   0   1
   162   126      0   0   0
   162   132      0   0   0
   162   156      0   0   0
   162   168      0   0   0
   162   192      0   0   0
   162   198      0   0   0
   163   164      0   0   0
   163   168      0   0  -1
   163   127      0   0   0
   163   133      0   0   0
   163   157      0   0   0
   163   169      0   0   0
   163   193      0   0   0
   163   199      0   0   0
   164   163      0   0   0
   164   165      0   0   0
   164   128      0   0   0
   164   134      0   0   0
   164   158      0   0   0
   164   170      0   0   0
   164   194      0   0   0
   164   200      0   0   0
   165   164      0   0   0
   165   166      0   0   0
   165   129      0   0   0
   165   135      0   0   0
   165   159      0   0   0
   165   171      0   0   0
   165   195      0   0   0
   165   201      0   0   0
   166   165      0   0   0
   166   167      0   0   0
   166   130      0   0   0
   166   136      0   0   0
   166   160      0   0   0
   166   172      0   0   0
   166   196      0   0   0
   166   202      0   0   0
   167   166      0   0   0
   167   168      0   0   0
   167   131      0   0   0
   167   137      0   0   0
   167   161      0   0   0
   167   173      0   0   0
   167   197      0   0   0
   167   203      0   0   0
   168   167      0   0   0
   168   163      0   0   1
   168   132      0   0   0
   168   138      0   0   0
   168   162      0   0   0
   168   174      0   0   0
   168   198      0   0   0
   168   204      0   0   0
   169   170      0   0   0
   169   174      0   0  -1
   169   133      0   0   0
   169   139      0   0   0
   169   163      0   0   0
   169   175      0   0   0
   169   199      0   0   0
   169   205      0   0   0
   170   169      0   0   0
   170   171      0   0   0
   170   134      0   0   0
   170   140      0   0   0
   170   164      0   0   0
   170   176      0   0   0
   170   200      0   0   0
   170   206      0   0   0
   171   170      0   0   0
   171   172      0   0   0
   171   135      0   0   0
   171   141      0   0   0
   171   165      0   0   0
   171   177      0   0   0
   171   201      0   0   0
   171   207      0   0   0
   172   171      0   0   0
   172   173      0   0   0
   172   136      0   0   0
   172   142      0   0   0
   172   166      0   0   0
   172   178      0   0   0
   172   202      0   0   0
   172   208      0   0   0
   173   172      0   0   0
   173   174      0   0   0
   173   137      0   0   0
   173   143      0   0   0
   173   167      0   0   0
   173   179      0   0   0
   173   203      0   0   0
   173   209      0   0   0
   174   173      0   0   0
   174   169      0   0   1
   174   138      0   0   0
   174   144      0   0   0
   174   168      0   0   0
   174   180      0   0   0
   174   204      0   0   0
   174   210      0   0   0
   175   176      0   0   0
   175   180      0   0  -1
   175   139      0   0   0
   175   169      0   0   0
   175   205      0   0   0
   175   211      0   0   0
   175   109      0   1   0
   175   145      0   1   0
   176   175      0   0   0
   176   177      0   0   0
   176   140      0   0   0
   176   170      0   0   0
   176   206      0   0   0
   176   212      0   0   0
   176   110      0   1   0
   176   146      0   1   0
   177   176      0   0   0
   177   178      0   0   0
   177   141      0   0   0
   177   171      0   0   0
   177   207      0   0   0
   177   213      0   0   0
   177   111      0   1   0
   177   147      0   1   0
   178   177      0   0   0
   178   179      0   0   0
   178   142      0   0   0
   178   172      0   0   0
   178   208      0   0   0
   178   214      0   0   0
   178   112      0   1   0
   178   148      0   1   0
   179   178      0   0   0
   179   180      0   0   0
   179   143      0   0   0
   179   173      0   0   0
   179   209      0   0   0
   179   215      0   0   0
   179   113      0   1   0
   179   149      0   1   0
   180   179      0   0   0
   180   175      0   0   1
   180   144      0   0   0
   180   174      0   0   0
   180   210      0   0   0
   180   216      0   0   0
   180   114      0   1   0
   180   150      0   1   0
   181   182      0   0   0
   181   186      0   0  -1
   181   145      0   0   0
   181   151      0   0   0
   181   187      0   0   0
   181     1      1   0   0
   181    31      1  -1   0
   181   211      0  -1   0
   182   181      0   0   0
   182   183      0   0   0
   182   146      0   0   0
   182   152      0   0   0
   182   188      0   0   0
   182     2      1   0   0
   182    32      1  -1   0
   182   212      0  -1   0
   183   182      0   0   0
   183   184      0   0   0
   183   147      0   0   0
   183   153      0   0   0
   183   189      0   0   0
   183     3      1   0   0
   183    33      1  -1   0
   183   213      0  -1   0
   184   183      0   0   0
   184   185      0   0   0
   184   148      0   0   0
   184   154      0   0   0
   184   190      0   0   0
   184     4      1   0   0
   184    34      1  -1   0
   184   214      0  -1   0
   185   184      0   0   0
   185   186      0   0   0
   185   149      0   0   0
   185   155      0   0   0
   185   191      0   0   0
   185     5      1   0   0
   185    35      1  -1   0
   185   215      0  -1   0
   186   185      0   0   0
   186   181      0   0   1
   186   150      0   0   0
   186   156      0   0   0
   186   192      0   0   0
   186     6      1   0   0
   186    36      1  -1   0
   186   216      0  -1   0
   187   188      0   0   0
   187   192      0   0  -1
   187   151      0   0   0
   187   157      0   0   0
   187   181      0   0   0
   187   193      0   0   0
   187     1      1   0   0
   187     7      1   0   0
   188   187      0   0   0
   188   189      0   0   0
   188   152      0   0   0
   188   158      0   0   0
   188   182      0   0   0
   188   194      0   0   0
   188     2      1   0   0
   188     8      1   0   0
   189   188      0   0   0
   189   190      0   0   0
   189   153      0   0   0
   189   159      0   0   0
   189   183      0   0   0
   189   195      0   0   0
   189     3      1   0   0
   189     9      1   0   0
   190   189      0   0   0
   190   191      0   0   0
   190   154      0   0   0
   190   160      0   0   0
   190   184      0   0   0
   190   196      0   0   0
   190     4      1   0   0
   190    10      1   0   0
   191   190      0   0   0
   191   192      0   0   0
   191   155      0   0   0
   191   161      0   0   0
   191   185      0   0   0
   191   197      0   0   0
   191     5      1   0   0
   191    11      1   0   0
   192   191      0   0   0
   192   187      0   0   1
   192   156      0   0   0
   192   162      0   0   0
   192   186      0   0   0
   192   198      0   0   0
   192     6      1   0   0
   192    12      1   0   0
   193   194      0   0   0
   193   198      0   0  -1
   193   157      0   0   0
   193   163      0   0   0
   193   187      0   0   0
   193   199      0   0   0
   193     7      1   0   0
   193    13      1   0   0
   194   193      0   0   0
   194   195      0   0   0
   194   158      0   0   0
   194   164      0   0   0
   194   188      0   0   0
   194   200      0   0   0
   194     8      1   0   0
   194    14      1   0   0
   195   194      0   0   0
   195   196      0   0   0
   195   159      0   0   0
   195   165      0   0   0
   195   189      0   0   0
   195   201      0   0   0
   195     9      1   0   0
   195    15      1   0   0
   196   195      0   0   0
   196   197      0   0   0
   196   160      0   0   0
   196   166      0   0   0
   196   190      0   0   0
   196   202      0   0   0
   196    10      1   0   0
   196    16      1   0   0
   197   196      0   0   0
   197   198      0   0   0
   197   161      0   0   0
   197   167      0   0   0
   197   191      0   0   0
   197   203      0   0   0
   197    11      1   0   0
   197    17      1   0   0
   198   197      0   0   0
   198   193      0   0   1
   198   162      0   0   0
   198   168      0   0   0
   198   192      0   0   0
   198   204      0   0   0
   198    12      1   0   0
   198    18      1   0   0
   199   200      0   0   0
   199   204      0   0  -1
   199   163      0   0   0
   199   169      0   0   0
   199   193      0   0   0
   199   205      0   0   0
   199    13      1   0   0
   199    19      1   0   0
   200   199      0   0   0
   200   201      0   0   0
   200   164      0   0   0
   200   170      0   0   0
   200   194      0   0   0
   200   206      0   0   0
   200    14      1   0   0
   200    20      1   0   0
   201   200      0   0   0
   201   202      0   0   0
   201   165      0   0   0
   201   171      0   0   0
   201   195      0   0   0
   201   207      0   0   0
   201    15      1   0   0
   201    21      1   0   0
   202   201      0   0   0
   202   203      0   0   0
   202   166      0   0   0
   202   172      0   0   0
   202   196      0   0   0
   202   208      0   0   0
   202    16      1   0   0
   202    22      1   0   0
   203   202      0   0   0
   203   204      0   0   0
   203   167      0   0   0
   203   173      0   0   0
   203   197      0   0   0
   203   209      0   0   0
   203    17      1   0   0
   203    23      1   0   0
   204   203      0   0   0
   204   199      0   0   1
   204   168      0   0   0
   204   174      0   0   0
   204   198      0   0   0
   204   210      0   0   0
   204    18      1   0   0
   204    24      1   0   0
   205   206      0   0   0
   205   210      0   0  -1
   205   169      0   0   0
   205   175      0   0   0
   205   199      0   0   0
   205   211      0   0   0
   205    19      1   0   0
   205    25      1   0   0
   206   205      0   0   0
   206   207      0   0   0
   206   170      0   0   0
   206   176      0   0   0
   206   200      0   0   0
   206   212      0   0   0
   206    20      1   0   0
   206    26      1   0   0
   207   206      0   0   0
   207   208      0   0   0
   207   171      0   0   0
   207   177      0   0   0
   207   201      0   0   0
   207   213      0   0   0
   207    21      1   0   0
   207    27      1   0   0
   208   207      0   0   0
   208   209      0   0   0
   208   172      0   0   0
   208   178      0   0   0
   208   202      0   0   0
   208   214      0   0   0
   208    22      1   0   0
   208    28      1   0   0
   209   208      0   0   0
   209   210      0   0   0
   209   173      0   0   0
   209   179      0   0   0
   209   203      0   0   0
   209   215      0   0   0
   209    23      1   0   0
   209    29      1   0   0
   210   209      0   0   0
   210   205      0   0   1
   210   174      0   0   0
   210   180      0   0   0
   210   204      0   0   0
   210   216      0   0   0
   210    24      1   0   0
   210    30      1   0   0
   211   212      0   0   0
   211   216      0   0  -1
   211   175      0   0   0
   211   205      0   0   0
   211    25      1   0   0
   211    31      1   0   0
   211   145      0   1   0
   211   181      0   1   0
   212   211      0   0   0
   212   213      0   0   0
   212   176      0   0   0
   212   206      0   0   0
   212    26      1   0   0
   212    32      1   0   0
   212   146      0   1   0
   212   182      0   1   0
   213   212      0   0   0
   213   214      0   0   0
   213   177      0   0   0
   213   207      0   0   0
   213    27      1   0   0
   213    33      1   0   0
   213   147      0   1   0
   213   183      0   1   0
   214   213      0   0   0
   214   215      0   0   0
   214   178      0   0   0
   214   208      0   0   0
   214    28      1   0   0
   214    34      1   0   0
   214   148      0   1   0
   214   184      0   1   0
   215   214      0   0   0
   215   216      0   0   0
   215   179      0   0   0
   215   209      0   0   0
   215    29      1   0   0
   215    35      1   0   0
   215   149      0   1   0
   215   185      0   1   0
   216   215      0   0   0
   216   211      0   0   1
   216   180      0   0   0
   216   210      0   0   0
   216    30      1   0   0
   216    36      1   0   0
   216   150      0   1   0
   216   186      0   1   0
end nnkpts

begin exclude_bands
   0
end exclude_bands
