
     Program PWSCF v.6.6 starts on 17Jun2021 at 23:21:39 

     This program is part of the open-source Quantum ESPRESSO suite
     for quantum simulation of materials; please cite
         "P. Giannozzi et al., J. Phys.:Condens. Matter 21 395502 (2009);
         "P. Giannozzi et al., J. Phys.:Condens. Matter 29 465901 (2017);
          URL http://www.quantum-espresso.org", 
     in publications or presentations arising from this work. More details at
     http://www.quantum-espresso.org/quote

     Parallel version (MPI), running on     2 processors

     MPI processes distributed on     1 nodes
     R & G space division:  proc/nbgrp/npool/nimage =       2
     Fft bands division:     nmany     =       1
     Waiting for input...
     Reading input from standard input

     Current dimensions of program PWSCF are:
     Max number of different atomic species (ntypx) = 10
     Max number of k-points (npk) =  40000
     Max angular momentum in pseudopotentials (lmaxx) =  3

     Atomic positions and unit cell read from directory:
     ./MgB2.save/
     Atomic positions from file used, from input discarded


     Subspace diagonalization in iterative solution of the eigenvalue problem:
     a serial algorithm will be used


     Parallelization info
     --------------------
     sticks:   dense  smooth     PW     G-vecs:    dense   smooth      PW
     Min         189     189     81                 3328     3328     953
     Max         190     190     82                 3329     3329     954
     Sum         379     379    163                 6657     6657    1907



     bravais-lattice index     =            4
     lattice parameter (alat)  =       5.8260  a.u.
     unit-cell volume          =     195.5871 (a.u.)^3
     number of atoms/cell      =            3
     number of atomic types    =            2
     number of electrons       =         8.00
     number of Kohn-Sham states=            8
     kinetic-energy cutoff     =      40.0000  Ry
     charge density cutoff     =     160.0000  Ry
     Exchange-correlation=  SLA  PZ   NOGX NOGC
                           (   1   1   0   0   0   0   0)

     celldm(1)=   5.826025  celldm(2)=   0.000000  celldm(3)=   1.142069
     celldm(4)=   0.000000  celldm(5)=   0.000000  celldm(6)=   0.000000

     crystal axes: (cart. coord. in units of alat)
               a(1) = (   1.000000   0.000000   0.000000 )  
               a(2) = (  -0.500000   0.866025   0.000000 )  
               a(3) = (   0.000000   0.000000   1.142069 )  

     reciprocal axes: (cart. coord. in units 2 pi/alat)
               b(1) = (  1.000000  0.577350 -0.000000 )  
               b(2) = (  0.000000  1.154701  0.000000 )  
               b(3) = (  0.000000 -0.000000  0.875604 )  


     PseudoPot. # 1 for Mg read from file:
     ../pp/Mg.pz-n-vbc.UPF
     MD5 check sum: 51ac066f8f4bf7da60c51ce0af5caf3d
     Pseudo is Norm-conserving + core correction, Zval =  2.0
     Generated by new atomic code, or converted to UPF format
     Using radial grid of  171 points,  2 beta functions with: 
                l(1) =   0
                l(2) =   1

     PseudoPot. # 2 for B  read from file:
     ../pp/B.pz-vbc.UPF
     MD5 check sum: b59596b5d63edeea6a2b3a0beace49c5
     Pseudo is Norm-conserving, Zval =  3.0
     Generated by new atomic code, or converted to UPF format
     Using radial grid of  157 points,  1 beta functions with: 
                l(1) =   0

     atomic species   valence    mass     pseudopotential
        Mg             2.00    24.30500     Mg( 1.00)
        B              3.00    10.81100     B ( 1.00)

     24 Sym. Ops., with inversion, found



   Cartesian axes

     site n.     atom                  positions (alat units)
         1           Mg  tau(   1) = (   0.0000000   0.0000000   0.0000000  )
         2           B   tau(   2) = (  -0.0000000   0.5773503   0.5710347  )
         3           B   tau(   3) = (   0.5000000   0.2886751   0.5710347  )

     number of k points=   216  Methfessel-Paxton smearing, width (Ry)=  0.0200

     Number of k-points >= 100: set verbosity='high' to print them.

     Dense  grid:     6657 G-vectors     FFT dimensions: (  24,  24,  27)

     Estimated max dynamical RAM per process >       1.59 MB

     Estimated total dynamical RAM >       3.19 MB

     The potential is recalculated from file :
     ./MgB2.save/charge-density

     Starting wfcs are   12 randomized atomic wfcs

     Band Structure Calculation
     Davidson diagonalization with overlap

     ethr =  1.25E-11,  avg # of iterations = 35.0

     total cpu time spent up to now is       13.8 secs

     End of band structure calculation

     Number of k-points >= 100: set verbosity='high' to print the bands.

     the Fermi energy is     7.5935 ev
     (compare with:     7.4185 eV, computed in scf)

     Writing output data file ./MgB2.save/

     init_run     :      0.02s CPU      0.02s WALL (       1 calls)
     electrons    :     12.93s CPU     13.54s WALL (       1 calls)

     Called by init_run:
     wfcinit      :      0.00s CPU      0.00s WALL (       1 calls)
     potinit      :      0.00s CPU      0.00s WALL (       1 calls)
     hinit0       :      0.01s CPU      0.01s WALL (       1 calls)

     Called by electrons:
     c_bands      :     12.93s CPU     13.54s WALL (       1 calls)
     v_of_rho     :      0.00s CPU      0.00s WALL (       1 calls)

     Called by c_bands:
     init_us_2    :      0.02s CPU      0.02s WALL (     216 calls)
     cegterg      :     12.12s CPU     12.68s WALL (     494 calls)

     Called by *egterg:
     cdiaghg      :      0.58s CPU      0.61s WALL (    7768 calls)
     h_psi        :     10.31s CPU     10.80s WALL (    8262 calls)
     g_psi        :      0.06s CPU      0.06s WALL (    7552 calls)

     Called by h_psi:
     h_psi:calbec :      0.19s CPU      0.20s WALL (    8262 calls)
     vloc_psi     :      9.89s CPU     10.36s WALL (    8262 calls)
     add_vuspsi   :      0.17s CPU      0.18s WALL (    8262 calls)

     General routines
     calbec       :      0.17s CPU      0.18s WALL (    8262 calls)
     fft          :      0.00s CPU      0.00s WALL (       4 calls)
     fftw         :      9.28s CPU      9.72s WALL (   82664 calls)
     davcio       :      0.02s CPU      0.02s WALL (     432 calls)

     Parallel routines
     fft_scatt_xy :      0.90s CPU      0.94s WALL (   82668 calls)
     fft_scatt_yz :      1.22s CPU      1.28s WALL (   82668 calls)

     PWSCF        :     13.18s CPU     13.84s WALL


   This run was terminated on:  23:21:53  17Jun2021            

=------------------------------------------------------------------------------=
   JOB DONE.
=------------------------------------------------------------------------------=
