
     Program PWSCF v.6.6 starts on 17Jun2021 at 23:21:17 

     This program is part of the open-source Quantum ESPRESSO suite
     for quantum simulation of materials; please cite
         "P. Giannozzi et al., J. Phys.:Condens. Matter 21 395502 (2009);
         "P. Giannozzi et al., J. Phys.:Condens. Matter 29 465901 (2017);
          URL http://www.quantum-espresso.org", 
     in publications or presentations arising from this work. More details at
     http://www.quantum-espresso.org/quote

     Parallel version (MPI), running on     2 processors

     MPI processes distributed on     1 nodes
     R & G space division:  proc/nbgrp/npool/nimage =       2
     Fft bands division:     nmany     =       1
     Waiting for input...
     Reading input from standard input

     Current dimensions of program PWSCF are:
     Max number of different atomic species (ntypx) = 10
     Max number of k-points (npk) =  40000
     Max angular momentum in pseudopotentials (lmaxx) =  3

     Subspace diagonalization in iterative solution of the eigenvalue problem:
     a serial algorithm will be used


     Parallelization info
     --------------------
     sticks:   dense  smooth     PW     G-vecs:    dense   smooth      PW
     Min         189     189     60                 3328     3328     607
     Max         190     190     61                 3329     3329     608
     Sum         379     379    121                 6657     6657    1215



     bravais-lattice index     =            4
     lattice parameter (alat)  =       5.8260  a.u.
     unit-cell volume          =     195.5871 (a.u.)^3
     number of atoms/cell      =            3
     number of atomic types    =            2
     number of electrons       =         8.00
     number of Kohn-Sham states=            8
     kinetic-energy cutoff     =      40.0000  Ry
     charge density cutoff     =     160.0000  Ry
     convergence threshold     =      1.0E-09
     mixing beta               =       0.7000
     number of iterations used =            8  plain     mixing
     Exchange-correlation=  SLA  PZ   NOGX NOGC
                           (   1   1   0   0   0   0   0)

     celldm(1)=   5.826025  celldm(2)=   0.000000  celldm(3)=   1.142069
     celldm(4)=   0.000000  celldm(5)=   0.000000  celldm(6)=   0.000000

     crystal axes: (cart. coord. in units of alat)
               a(1) = (   1.000000   0.000000   0.000000 )  
               a(2) = (  -0.500000   0.866025   0.000000 )  
               a(3) = (   0.000000   0.000000   1.142069 )  

     reciprocal axes: (cart. coord. in units 2 pi/alat)
               b(1) = (  1.000000  0.577350 -0.000000 )  
               b(2) = (  0.000000  1.154701  0.000000 )  
               b(3) = (  0.000000 -0.000000  0.875604 )  


     PseudoPot. # 1 for Mg read from file:
     ../pp/Mg.pz-n-vbc.UPF
     MD5 check sum: 51ac066f8f4bf7da60c51ce0af5caf3d
     Pseudo is Norm-conserving + core correction, Zval =  2.0
     Generated by new atomic code, or converted to UPF format
     Using radial grid of  171 points,  2 beta functions with: 
                l(1) =   0
                l(2) =   1

     PseudoPot. # 2 for B  read from file:
     ../pp/B.pz-vbc.UPF
     MD5 check sum: b59596b5d63edeea6a2b3a0beace49c5
     Pseudo is Norm-conserving, Zval =  3.0
     Generated by new atomic code, or converted to UPF format
     Using radial grid of  157 points,  1 beta functions with: 
                l(1) =   0

     atomic species   valence    mass     pseudopotential
        Mg             2.00    24.30500     Mg( 1.00)
        B              3.00    10.81100     B ( 1.00)

     24 Sym. Ops., with inversion, found



   Cartesian axes

     site n.     atom                  positions (alat units)
         1           Mg  tau(   1) = (   0.0000000   0.0000000   0.0000000  )
         2           B   tau(   2) = (  -0.0000000   0.5773503   0.5710347  )
         3           B   tau(   3) = (   0.5000000   0.2886751   0.5710347  )

     number of k points=   133  Methfessel-Paxton smearing, width (Ry)=  0.0200

     Number of k-points >= 100: set verbosity='high' to print them.

     Dense  grid:     6657 G-vectors     FFT dimensions: (  24,  24,  27)

     Estimated max dynamical RAM per process >       9.31 MB

     Estimated total dynamical RAM >      18.61 MB

     Initial potential from superposition of free atoms

     starting charge    7.99827, renormalised to    8.00000
     Starting wfcs are   12 randomized atomic wfcs

     total cpu time spent up to now is        1.0 secs

     Self-consistent Calculation

     iteration #  1     ecut=    40.00 Ry     beta= 0.70
     Davidson diagonalization with overlap
     ethr =  1.00E-02,  avg # of iterations =  3.9

     total cpu time spent up to now is        3.5 secs

     total energy              =     -13.48168800 Ry
     estimated scf accuracy    <       0.32842780 Ry

     iteration #  2     ecut=    40.00 Ry     beta= 0.70
     Davidson diagonalization with overlap
     ethr =  4.11E-03,  avg # of iterations =  2.3

     total cpu time spent up to now is        5.4 secs

     total energy              =     -13.56402399 Ry
     estimated scf accuracy    <       0.05218300 Ry

     iteration #  3     ecut=    40.00 Ry     beta= 0.70
     Davidson diagonalization with overlap
     ethr =  6.52E-04,  avg # of iterations =  1.9

     total cpu time spent up to now is        7.1 secs

     total energy              =     -13.57456449 Ry
     estimated scf accuracy    <       0.00040497 Ry

     iteration #  4     ecut=    40.00 Ry     beta= 0.70
     Davidson diagonalization with overlap
     c_bands:  1 eigenvalues not converged
     ethr =  5.06E-06,  avg # of iterations =  5.7

     total cpu time spent up to now is        9.8 secs

     total energy              =     -13.57469126 Ry
     estimated scf accuracy    <       0.00000969 Ry

     iteration #  5     ecut=    40.00 Ry     beta= 0.70
     Davidson diagonalization with overlap
     ethr =  1.21E-07,  avg # of iterations =  2.3

     total cpu time spent up to now is       10.8 secs

     total energy              =     -13.57469261 Ry
     estimated scf accuracy    <       0.00000035 Ry

     iteration #  6     ecut=    40.00 Ry     beta= 0.70
     Davidson diagonalization with overlap
     ethr =  4.40E-09,  avg # of iterations =  2.1

     total cpu time spent up to now is       11.6 secs

     total energy              =     -13.57469267 Ry
     estimated scf accuracy    <       0.00000003 Ry

     iteration #  7     ecut=    40.00 Ry     beta= 0.70
     Davidson diagonalization with overlap
     ethr =  4.18E-10,  avg # of iterations =  2.1

     total cpu time spent up to now is       12.5 secs

     total energy              =     -13.57469268 Ry
     estimated scf accuracy    <          1.5E-09 Ry

     iteration #  8     ecut=    40.00 Ry     beta= 0.70
     Davidson diagonalization with overlap
     ethr =  1.86E-11,  avg # of iterations =  2.0

     total cpu time spent up to now is       13.3 secs

     End of self-consistent calculation

     Number of k-points >= 100: set verbosity='high' to print the bands.

     the Fermi energy is     7.4185 ev

!    total energy              =     -13.57469268 Ry
     estimated scf accuracy    <          6.1E-13 Ry
     smearing contrib. (-TS)   =       0.00023002 Ry
     internal energy E=F+TS    =     -13.57492270 Ry

     The total energy is F=E-TS. E is the sum of the following terms:
     one-electron contribution =       4.62720367 Ry
     hartree contribution      =       1.93131216 Ry
     xc contribution           =      -5.72787671 Ry
     ewald contribution        =     -14.40556183 Ry

     convergence has been achieved in   8 iterations

     Forces acting on atoms (cartesian axes, Ry/au):

     atom    1 type  1   force =     0.00000000    0.00000000    0.00000000
     atom    2 type  2   force =     0.00000000    0.00000000    0.00000000
     atom    3 type  2   force =    -0.00000000   -0.00000000    0.00000000

     Total force =     0.000000     Total SCF correction =     0.000000


     Computing stress (Cartesian axis) and pressure

          total   stress  (Ry/bohr**3)                   (kbar)     P=     -103.43
  -0.00079444  -0.00000000   0.00000000         -116.87       -0.00        0.00
  -0.00000000  -0.00079444  -0.00000000           -0.00     -116.87       -0.00
  -0.00000000   0.00000000  -0.00052040           -0.00        0.00      -76.55


     Writing output data file ./MgB2.save/

     init_run     :      0.95s CPU      1.00s WALL (       1 calls)
     electrons    :     11.63s CPU     12.26s WALL (       1 calls)
     forces       :      0.03s CPU      0.03s WALL (       1 calls)
     stress       :      0.24s CPU      0.24s WALL (       1 calls)

     Called by init_run:
     wfcinit      :      0.91s CPU      0.96s WALL (       1 calls)
     potinit      :      0.01s CPU      0.01s WALL (       1 calls)
     hinit0       :      0.02s CPU      0.02s WALL (       1 calls)

     Called by electrons:
     c_bands      :      9.96s CPU     10.52s WALL (       8 calls)
     sum_band     :      1.65s CPU      1.72s WALL (       8 calls)
     v_of_rho     :      0.01s CPU      0.01s WALL (       9 calls)
     mix_rho      :      0.01s CPU      0.01s WALL (       8 calls)

     Called by c_bands:
     init_us_2    :      0.21s CPU      0.22s WALL (    2527 calls)
     cegterg      :      9.77s CPU     10.32s WALL (    1064 calls)

     Called by *egterg:
     cdiaghg      :      0.35s CPU      0.37s WALL (    4011 calls)
     h_psi        :      8.85s CPU      9.37s WALL (    4144 calls)
     g_psi        :      0.03s CPU      0.03s WALL (    2947 calls)

     Called by h_psi:
     h_psi:calbec :      0.21s CPU      0.22s WALL (    4144 calls)
     vloc_psi     :      8.46s CPU      8.95s WALL (    4144 calls)
     add_vuspsi   :      0.14s CPU      0.15s WALL (    4144 calls)

     General routines
     calbec       :      0.25s CPU      0.26s WALL (    4809 calls)
     fft          :      0.01s CPU      0.01s WALL (      34 calls)
     ffts         :      0.00s CPU      0.00s WALL (       8 calls)
     fftw         :      9.28s CPU      9.80s WALL (   56446 calls)

     Parallel routines
     fft_scatt_xy :      0.77s CPU      0.81s WALL (   56488 calls)
     fft_scatt_yz :      2.54s CPU      2.67s WALL (   56488 calls)

     PWSCF        :     12.89s CPU     13.60s WALL


   This run was terminated on:  23:21:30  17Jun2021            

=------------------------------------------------------------------------------=
   JOB DONE.
=------------------------------------------------------------------------------=
