
     Program PWSCF v.6.6 starts on 11Jun2021 at 15:51:50 

     This program is part of the open-source Quantum ESPRESSO suite
     for quantum simulation of materials; please cite
         "P. Giannozzi et al., J. Phys.:Condens. Matter 21 395502 (2009);
         "P. Giannozzi et al., J. Phys.:Condens. Matter 29 465901 (2017);
          URL http://www.quantum-espresso.org", 
     in publications or presentations arising from this work. More details at
     http://www.quantum-espresso.org/quote

     Parallel version (MPI), running on     2 processors

     MPI processes distributed on     1 nodes
     R & G space division:  proc/nbgrp/npool/nimage =       2
     Fft bands division:     nmany     =       1
     Waiting for input...
     Reading input from standard input

     Current dimensions of program PWSCF are:
     Max number of different atomic species (ntypx) = 10
     Max number of k-points (npk) =  40000
     Max angular momentum in pseudopotentials (lmaxx) =  3
     file Nb.pz-spn-kjpaw_psl.1.0.0.UPF: wavefunction(s)  4S 4P 4D renormalized
     file S.pz-n-kjpaw_psl.0.1.UPF: wavefunction(s)  3P renormalized

     Subspace diagonalization in iterative solution of the eigenvalue problem:
     a serial algorithm will be used


     Parallelization info
     --------------------
     sticks:   dense  smooth     PW     G-vecs:    dense   smooth      PW
     Min         579     225     69                60041    15089    2531
     Max         580     226     70                60050    15100    2534
     Sum        1159     451    139               120091    30189    5065



     bravais-lattice index     =            4
     lattice parameter (alat)  =       6.4591  a.u.
     unit-cell volume          =     887.5947 (a.u.)^3
     number of atoms/cell      =            3
     number of atomic types    =            2
     number of electrons       =        25.00
     number of Kohn-Sham states=           25
     kinetic-energy cutoff     =      40.0000  Ry
     charge density cutoff     =     400.0000  Ry
     convergence threshold     =      1.0E-08
     mixing beta               =       0.7000
     number of iterations used =            8  plain     mixing
     Exchange-correlation= SLA PZ NOGX NOGC
                           (   1   1   0   0   0   0   0)
     nstep                     =           50


     celldm(1)=   6.459084  celldm(2)=   0.000000  celldm(3)=   3.803394
     celldm(4)=   0.000000  celldm(5)=   0.000000  celldm(6)=   0.000000

     crystal axes: (cart. coord. in units of alat)
               a(1) = (   1.000000   0.000000   0.000000 )  
               a(2) = (  -0.500000   0.866025   0.000000 )  
               a(3) = (   0.000000   0.000000   3.803394 )  

     reciprocal axes: (cart. coord. in units 2 pi/alat)
               b(1) = (  1.000000  0.577350 -0.000000 )  
               b(2) = (  0.000000  1.154701  0.000000 )  
               b(3) = (  0.000000 -0.000000  0.262923 )  


     PseudoPot. # 1 for Nb read from file:
     ./Nb.pz-spn-kjpaw_psl.1.0.0.UPF
     MD5 check sum: 38c2e04b3cc915696ca8dc9f46a23270
     Pseudo is Projector augmented-wave + core cor, Zval = 13.0
     Generated using "atomic" code by A. Dal Corso v.6.2.2
     Shape of augmentation charge: PSQ
     Using radial grid of 1227 points,  6 beta functions with: 
                l(1) =   0
                l(2) =   0
                l(3) =   1
                l(4) =   1
                l(5) =   2
                l(6) =   2
     Q(r) pseudized with 0 coefficients 


     PseudoPot. # 2 for S  read from file:
     ./S.pz-n-kjpaw_psl.0.1.UPF
     MD5 check sum: c0b1682311cf098e03f7841691d9a679
     Pseudo is Projector augmented-wave + core cor, Zval =  6.0
     Generated using "atomic" code by A. Dal Corso v.5.0.2 svn rev. 9415
     Shape of augmentation charge: PSQ
     Using radial grid of 1151 points,  4 beta functions with: 
                l(1) =   0
                l(2) =   0
                l(3) =   1
                l(4) =   1
     Q(r) pseudized with 0 coefficients 


     atomic species   valence    mass     pseudopotential
        Nb            13.00    92.90600     Nb( 1.00)
        S              6.00    32.06500     S ( 1.00)

     12 Sym. Ops. (no inversion) found ( 6 have fractional translation)


                                    s                        frac. trans.

      isym =  1     identity                                     

 cryst.   s( 1) = (     1          0          0      )
                  (     0          1          0      )
                  (     0          0          1      )

 cart.    s( 1) = (  1.0000000  0.0000000  0.0000000 )
                  (  0.0000000  1.0000000  0.0000000 )
                  (  0.0000000  0.0000000  1.0000000 )


      isym =  2     180 deg rotation - cart. axis [0,1,0]        

 cryst.   s( 2) = (    -1          0          0      )    f =(  0.0000000 )
                  (     1          1          0      )       (  0.0000000 )
                  (     0          0         -1      )       (  0.5000000 )

 cart.    s( 2) = ( -1.0000000  0.0000000  0.0000000 )    f =(  0.0000000 )
                  (  0.0000000  1.0000000  0.0000000 )       (  0.0000000 )
                  (  0.0000000  0.0000000 -1.0000000 )       (  1.9016969 )


      isym =  3     120 deg rotation - cryst. axis [0,0,1]       

 cryst.   s( 3) = (     0          1          0      )
                  (    -1         -1          0      )
                  (     0          0          1      )

 cart.    s( 3) = ( -0.5000000 -0.8660254  0.0000000 )
                  (  0.8660254 -0.5000000  0.0000000 )
                  (  0.0000000  0.0000000  1.0000000 )


      isym =  4     120 deg rotation - cryst. axis [0,0,-1]      

 cryst.   s( 4) = (    -1         -1          0      )
                  (     1          0          0      )
                  (     0          0          1      )

 cart.    s( 4) = ( -0.5000000  0.8660254  0.0000000 )
                  ( -0.8660254 -0.5000000  0.0000000 )
                  (  0.0000000  0.0000000  1.0000000 )


      isym =  5     180 deg rotation - cryst. axis [1,-1,0]      

 cryst.   s( 5) = (     0         -1          0      )    f =(  0.0000000 )
                  (    -1          0          0      )       (  0.0000000 )
                  (     0          0         -1      )       (  0.5000000 )

 cart.    s( 5) = (  0.5000000 -0.8660254  0.0000000 )    f =(  0.0000000 )
                  ( -0.8660254 -0.5000000  0.0000000 )       (  0.0000000 )
                  (  0.0000000  0.0000000 -1.0000000 )       (  1.9016969 )


      isym =  6     180 deg rotation - cryst. axis [2,1,0]       

 cryst.   s( 6) = (     1          1          0      )    f =(  0.0000000 )
                  (     0         -1          0      )       (  0.0000000 )
                  (     0          0         -1      )       (  0.5000000 )

 cart.    s( 6) = (  0.5000000  0.8660254  0.0000000 )    f =( -0.0000000 )
                  (  0.8660254 -0.5000000  0.0000000 )       (  0.0000000 )
                  (  0.0000000  0.0000000 -1.0000000 )       (  1.9016969 )


      isym =  7     inv. 180 deg rotation - cart. axis [0,0,1]   

 cryst.   s( 7) = (     1          0          0      )    f =(  0.0000000 )
                  (     0          1          0      )       (  0.0000000 )
                  (     0          0         -1      )       (  0.5000000 )

 cart.    s( 7) = (  1.0000000  0.0000000  0.0000000 )    f =(  0.0000000 )
                  (  0.0000000  1.0000000  0.0000000 )       (  0.0000000 )
                  (  0.0000000  0.0000000 -1.0000000 )       (  1.9016969 )


      isym =  8     inv. 180 deg rotation - cart. axis [1,0,0]   

 cryst.   s( 8) = (    -1          0          0      )
                  (     1          1          0      )
                  (     0          0          1      )

 cart.    s( 8) = ( -1.0000000  0.0000000  0.0000000 )
                  (  0.0000000  1.0000000  0.0000000 )
                  (  0.0000000  0.0000000  1.0000000 )


      isym =  9     inv.  60 deg rotation - cryst. axis [0,0,1]  

 cryst.   s( 9) = (    -1         -1          0      )    f =(  0.0000000 )
                  (     1          0          0      )       (  0.0000000 )
                  (     0          0         -1      )       (  0.5000000 )

 cart.    s( 9) = ( -0.5000000  0.8660254  0.0000000 )    f =( -0.0000000 )
                  ( -0.8660254 -0.5000000  0.0000000 )       (  0.0000000 )
                  (  0.0000000  0.0000000 -1.0000000 )       (  1.9016969 )


      isym = 10     inv.  60 deg rotation - cryst. axis [0,0,-1] 

 cryst.   s(10) = (     0          1          0      )    f =(  0.0000000 )
                  (    -1         -1          0      )       (  0.0000000 )
                  (     0          0         -1      )       (  0.5000000 )

 cart.    s(10) = ( -0.5000000 -0.8660254  0.0000000 )    f =(  0.0000000 )
                  (  0.8660254 -0.5000000  0.0000000 )       (  0.0000000 )
                  (  0.0000000  0.0000000 -1.0000000 )       (  1.9016969 )


      isym = 11     inv. 180 deg rotation - cryst. axis [0,1,0]  

 cryst.   s(11) = (     1          1          0      )
                  (     0         -1          0      )
                  (     0          0          1      )

 cart.    s(11) = (  0.5000000  0.8660254  0.0000000 )
                  (  0.8660254 -0.5000000  0.0000000 )
                  (  0.0000000  0.0000000  1.0000000 )


      isym = 12     inv. 180 deg rotation - cryst. axis [1,1,0]  

 cryst.   s(12) = (     0         -1          0      )
                  (    -1          0          0      )
                  (     0          0          1      )

 cart.    s(12) = (  0.5000000 -0.8660254  0.0000000 )
                  ( -0.8660254 -0.5000000  0.0000000 )
                  (  0.0000000  0.0000000  1.0000000 )


     point group D_3h (-62m)
     there are  6 classes
     the character table:

       E     2C3   3C2   s_h   2S3   3s_v 
A'_1   1.00  1.00  1.00  1.00  1.00  1.00
A'_2   1.00  1.00 -1.00  1.00  1.00 -1.00
E'     2.00 -1.00  0.00  2.00 -1.00  0.00
A''1   1.00  1.00  1.00 -1.00 -1.00 -1.00
A''2   1.00  1.00 -1.00 -1.00 -1.00  1.00
E''    2.00 -1.00  0.00 -2.00  1.00  0.00

     the symmetry operations in each class and the name of the first element:

     E        1
          identity                                               
     2C3      3    4
          120 deg rotation - cryst. axis [0,0,1]                 
     3C2      2    6    5
          180 deg rotation - cart. axis [0,1,0]                  
     s_h      7
          inv. 180 deg rotation - cart. axis [0,0,1]             
     2S3      9   10
          inv.  60 deg rotation - cryst. axis [0,0,1]            
     3s_v     8   11   12
          inv. 180 deg rotation - cart. axis [1,0,0]             

   Cartesian axes

     site n.     atom                  positions (alat units)
         1           S   tau(   1) = (   0.0000000   0.5773503   1.4004096  )
         2           Nb  tau(   2) = (   0.0000000   0.0000000   0.9508484  )
         3           S   tau(   3) = (   0.0000000   0.5773503   0.5012873  )

   Crystallographic axes

     site n.     atom                  positions (cryst. coord.)
         1           S   tau(   1) = (  0.3333333  0.6666667  0.3682000  )
         2           Nb  tau(   2) = (  0.0000000  0.0000000  0.2500000  )
         3           S   tau(   3) = (  0.3333333  0.6666667  0.1318000  )

     number of k points=    19  Methfessel-Paxton smearing, width (Ry)=  0.0200
                       cart. coord. in units 2pi/alat
        k(    1) = (   0.0000000   0.0000000   0.0000000), wk =   0.0138889
        k(    2) = (   0.0000000   0.0962250   0.0000000), wk =   0.0833333
        k(    3) = (   0.0000000   0.1924501   0.0000000), wk =   0.0833333
        k(    4) = (   0.0000000   0.2886751   0.0000000), wk =   0.0833333
        k(    5) = (   0.0000000   0.3849002   0.0000000), wk =   0.0833333
        k(    6) = (   0.0000000   0.4811252   0.0000000), wk =   0.0833333
        k(    7) = (   0.0000000  -0.5773503   0.0000000), wk =   0.0416667
        k(    8) = (   0.0833333   0.1443376   0.0000000), wk =   0.0833333
        k(    9) = (   0.0833333   0.2405626   0.0000000), wk =   0.1666667
        k(   10) = (   0.0833333   0.3367877   0.0000000), wk =   0.1666667
        k(   11) = (   0.0833333   0.4330127   0.0000000), wk =   0.1666667
        k(   12) = (   0.0833333   0.5292377   0.0000000), wk =   0.1666667
        k(   13) = (   0.1666667   0.2886751   0.0000000), wk =   0.0833333
        k(   14) = (   0.1666667   0.3849002   0.0000000), wk =   0.1666667
        k(   15) = (   0.1666667   0.4811252   0.0000000), wk =   0.1666667
        k(   16) = (   0.1666667   0.5773503   0.0000000), wk =   0.0833333
        k(   17) = (   0.2500000   0.4330127   0.0000000), wk =   0.0833333
        k(   18) = (   0.2500000   0.5292377   0.0000000), wk =   0.1666667
        k(   19) = (   0.3333333   0.5773503   0.0000000), wk =   0.0277778

                       cryst. coord.
        k(    1) = (   0.0000000   0.0000000   0.0000000), wk =   0.0138889
        k(    2) = (   0.0000000   0.0833333   0.0000000), wk =   0.0833333
        k(    3) = (   0.0000000   0.1666667   0.0000000), wk =   0.0833333
        k(    4) = (   0.0000000   0.2500000   0.0000000), wk =   0.0833333
        k(    5) = (   0.0000000   0.3333333   0.0000000), wk =   0.0833333
        k(    6) = (   0.0000000   0.4166667   0.0000000), wk =   0.0833333
        k(    7) = (   0.0000000  -0.5000000   0.0000000), wk =   0.0416667
        k(    8) = (   0.0833333   0.0833333   0.0000000), wk =   0.0833333
        k(    9) = (   0.0833333   0.1666667   0.0000000), wk =   0.1666667
        k(   10) = (   0.0833333   0.2500000   0.0000000), wk =   0.1666667
        k(   11) = (   0.0833333   0.3333333   0.0000000), wk =   0.1666667
        k(   12) = (   0.0833333   0.4166667   0.0000000), wk =   0.1666667
        k(   13) = (   0.1666667   0.1666667   0.0000000), wk =   0.0833333
        k(   14) = (   0.1666667   0.2500000   0.0000000), wk =   0.1666667
        k(   15) = (   0.1666667   0.3333333   0.0000000), wk =   0.1666667
        k(   16) = (   0.1666667   0.4166667   0.0000000), wk =   0.0833333
        k(   17) = (   0.2500000   0.2500000   0.0000000), wk =   0.0833333
        k(   18) = (   0.2500000   0.3333333   0.0000000), wk =   0.1666667
        k(   19) = (   0.3333333   0.3333333   0.0000000), wk =   0.0277778

     Dense  grid:   120091 G-vectors     FFT dimensions: (  45,  45, 160)

     Smooth grid:    30189 G-vectors     FFT dimensions: (  25,  25, 100)

     Dynamical RAM for                 wfc:       0.72 MB

     Dynamical RAM for     wfc (w. buffer):      14.47 MB

     Dynamical RAM for           str. fact:       1.83 MB

     Dynamical RAM for           local pot:       0.00 MB

     Dynamical RAM for          nlocal pot:       0.98 MB

     Dynamical RAM for                qrad:       6.42 MB

     Dynamical RAM for          rho,v,vnew:       6.46 MB

     Dynamical RAM for               rhoin:       2.15 MB

     Dynamical RAM for            rho*nmix:      14.66 MB

     Dynamical RAM for           G-vectors:       3.55 MB

     Dynamical RAM for          h,s,v(r/c):       0.11 MB

     Dynamical RAM for          <psi|beta>:       0.01 MB

     Dynamical RAM for                 psi:       1.45 MB

     Dynamical RAM for                hpsi:       1.45 MB

     Dynamical RAM for                spsi:       1.45 MB

     Dynamical RAM for      wfcinit/wfcrot:       1.46 MB

     Dynamical RAM for           addusdens:     172.26 MB

     Dynamical RAM for          addusforce:     174.56 MB

     Dynamical RAM for         addusstress:     184.17 MB

     Estimated static dynamical RAM per process >      59.45 MB

     Estimated max dynamical RAM per process >     243.63 MB

     Estimated total dynamical RAM >     487.25 MB

     Initial potential from superposition of free atoms

     starting charge   24.99887, renormalised to   25.00000

     negative rho (up, down):  6.073E-05 0.000E+00
     Starting wfcs are   21 randomized atomic wfcs +    4 random wfcs
     Checking if some PAW data can be deallocated... 
       PAW data deallocated on    1 nodes for type:  1

     total cpu time spent up to now is        6.9 secs

     Self-consistent Calculation

     iteration #  1     ecut=    40.00 Ry     beta= 0.70
     Davidson diagonalization with overlap
     ethr =  1.00E-02,  avg # of iterations =  6.8

     Threshold (ethr) on eigenvalues was too large:
     Diagonalizing with lowered threshold

     Davidson diagonalization with overlap
     ethr =  4.99E-04,  avg # of iterations =  1.4

     negative rho (up, down):  1.021E-04 0.000E+00

     total cpu time spent up to now is       14.8 secs

     total energy              =    -453.89387733 Ry
     estimated scf accuracy    <       0.12868831 Ry

     iteration #  2     ecut=    40.00 Ry     beta= 0.70
     Davidson diagonalization with overlap
     ethr =  5.15E-04,  avg # of iterations =  2.9

     negative rho (up, down):  1.090E-04 0.000E+00

     total cpu time spent up to now is       18.7 secs

     total energy              =    -453.90091851 Ry
     estimated scf accuracy    <       0.13479899 Ry

     iteration #  3     ecut=    40.00 Ry     beta= 0.70
     Davidson diagonalization with overlap
     ethr =  5.15E-04,  avg # of iterations =  1.8

     negative rho (up, down):  1.073E-04 0.000E+00

     total cpu time spent up to now is       21.8 secs

     total energy              =    -453.92605328 Ry
     estimated scf accuracy    <       0.11035160 Ry

     iteration #  4     ecut=    40.00 Ry     beta= 0.70
     Davidson diagonalization with overlap
     ethr =  4.41E-04,  avg # of iterations =  1.0

     negative rho (up, down):  1.104E-04 0.000E+00

     total cpu time spent up to now is       24.7 secs

     total energy              =    -453.94116833 Ry
     estimated scf accuracy    <       0.00054969 Ry

     iteration #  5     ecut=    40.00 Ry     beta= 0.70
     Davidson diagonalization with overlap
     ethr =  2.20E-06,  avg # of iterations =  6.9

     negative rho (up, down):  1.105E-04 0.000E+00

     total cpu time spent up to now is       29.7 secs

     total energy              =    -453.94136721 Ry
     estimated scf accuracy    <       0.00004560 Ry

     iteration #  6     ecut=    40.00 Ry     beta= 0.70
     Davidson diagonalization with overlap
     ethr =  1.82E-07,  avg # of iterations =  1.9

     negative rho (up, down):  1.103E-04 0.000E+00

     total cpu time spent up to now is       32.8 secs

     total energy              =    -453.94137088 Ry
     estimated scf accuracy    <       0.00000341 Ry

     iteration #  7     ecut=    40.00 Ry     beta= 0.70
     Davidson diagonalization with overlap
     ethr =  1.36E-08,  avg # of iterations =  2.3

     negative rho (up, down):  1.105E-04 0.000E+00

     total cpu time spent up to now is       36.2 secs

     total energy              =    -453.94137191 Ry
     estimated scf accuracy    <       0.00000043 Ry

     iteration #  8     ecut=    40.00 Ry     beta= 0.70
     Davidson diagonalization with overlap
     ethr =  1.72E-09,  avg # of iterations =  2.0

     negative rho (up, down):  1.105E-04 0.000E+00

     total cpu time spent up to now is       39.4 secs

     End of self-consistent calculation

          k = 0.0000 0.0000 0.0000 (  3817 PWs)   bands (ev):

   -54.4455 -30.5927 -30.4648 -30.4648 -12.8204 -11.4969  -4.4052  -1.9954
    -1.9954  -0.9362  -0.9362  -0.6312   1.5150   3.2717   3.2717   3.5556
     3.5556   5.2344   6.2895   6.9808   8.4057   8.8686  10.6828  10.6828
    12.2133

     occupation numbers 
     1.0000   1.0000   1.0000   1.0000   1.0000   1.0000   1.0000   1.0000
     1.0000   1.0000   1.0000   1.0000  -0.0000  -0.0000  -0.0000  -0.0000
    -0.0000  -0.0000  -0.0000  -0.0000  -0.0000  -0.0000  -0.0000  -0.0000
    -0.0000

          k = 0.0000 0.0962 0.0000 (  3831 PWs)   bands (ev):

   -54.4437 -30.5886 -30.4853 -30.4694 -12.7415 -11.4751  -4.3100  -2.2072
    -1.9126  -1.3351  -1.0715  -0.3750   1.3985   3.1957   3.4221   3.4492
     3.4777   5.6282   6.4640   7.1105   8.8061   8.9920  10.4219  10.9405
    12.0509

     occupation numbers 
     1.0000   1.0000   1.0000   1.0000   1.0000   1.0000   1.0000   1.0000
     1.0000   1.0000   1.0000   1.0001  -0.0000  -0.0000  -0.0000  -0.0000
    -0.0000  -0.0000  -0.0000  -0.0000  -0.0000  -0.0000  -0.0000  -0.0000
    -0.0000

          k = 0.0000 0.1925 0.0000 (  3811 PWs)   bands (ev):

   -54.4389 -30.5772 -30.5410 -30.4819 -12.5201 -11.4138  -4.0679  -2.6852
    -1.8981  -1.6831  -1.3938  -0.2760   1.0270   3.2242   3.2721   3.2989
     3.8768   6.3729   7.1057   7.4314   9.2651   9.6514   9.9430  11.1727
    11.6253

     occupation numbers 
     1.0000   1.0000   1.0000   1.0000   1.0000   1.0000   1.0000   1.0000
     1.0000   1.0000   1.0000   1.0005  -0.0055  -0.0000  -0.0000  -0.0000
    -0.0000  -0.0000  -0.0000  -0.0000  -0.0000  -0.0000  -0.0000  -0.0000
    -0.0000

          k = 0.0000 0.2887 0.0000 (  3801 PWs)   bands (ev):

   -54.4324 -30.6161 -30.5616 -30.4989 -12.2014 -11.3256  -3.8965  -3.0684
    -2.4657  -1.7591  -1.3642  -0.4082   0.5314   3.1307   3.2901   3.5537
     4.3588   6.9489   7.8653   8.0980   9.1381   9.5812  10.0067  11.2928
    12.0313

     occupation numbers 
     1.0000   1.0000   1.0000   1.0000   1.0000   1.0000   1.0000   1.0000
     1.0000   1.0000   1.0000   1.0000   0.2667  -0.0000  -0.0000  -0.0000
    -0.0000  -0.0000  -0.0000  -0.0000  -0.0000  -0.0000  -0.0000  -0.0000
    -0.0000

          k = 0.0000 0.3849 0.0000 (  3803 PWs)   bands (ev):

   -54.4259 -30.6900 -30.5460 -30.5159 -11.8589 -11.2315  -4.1202  -3.0493
    -2.9692  -2.0687  -1.0449  -0.5831   0.2313   3.0577   3.3940   4.0069
     4.7487   7.3740   8.1008   8.2596   9.1345   9.1405  10.8790  11.3624
    11.7537

     occupation numbers 
     1.0000   1.0000   1.0000   1.0000   1.0000   1.0000   1.0000   1.0000
     1.0000   1.0000   1.0000   1.0000   0.9936  -0.0000  -0.0000  -0.0000
    -0.0000  -0.0000  -0.0000  -0.0000  -0.0000  -0.0000  -0.0000  -0.0000
    -0.0000

          k = 0.0000 0.4811 0.0000 (  3776 PWs)   bands (ev):

   -54.4211 -30.7435 -30.5345 -30.5282 -11.5890 -11.1583  -4.4015  -3.3210
    -3.0103  -2.2704  -0.8178  -0.6945   0.2797   3.0807   3.4719   4.3467
     4.9843   6.9396   8.1946   8.3635   9.2314   9.7118  10.8825  11.0674
    11.1400

     occupation numbers 
     1.0000   1.0000   1.0000   1.0000   1.0000   1.0000   1.0000   1.0000
     1.0000   1.0000   1.0000   1.0000   0.9357  -0.0000  -0.0000  -0.0000
    -0.0000  -0.0000  -0.0000  -0.0000  -0.0000  -0.0000  -0.0000  -0.0000
    -0.0000

          k = 0.0000-0.5774 0.0000 (  3754 PWs)   bands (ev):

   -54.4194 -30.7629 -30.5327 -30.5303 -11.4852 -11.1305  -4.5100  -3.4476
    -3.0251  -2.3400  -0.7375  -0.7298   0.3857   3.1098   3.4903   4.4622
     5.0609   6.5893   8.3767   8.4389   9.3827   9.9870  10.8520  10.8559
    10.8884

     occupation numbers 
     1.0000   1.0000   1.0000   1.0000   1.0000   1.0000   1.0000   1.0000
     1.0000   1.0000   1.0000   1.0000   0.7018  -0.0000  -0.0000  -0.0000
    -0.0000  -0.0000  -0.0000  -0.0000  -0.0000  -0.0000  -0.0000  -0.0000
    -0.0000

          k = 0.0833 0.1443 0.0000 (  3821 PWs)   bands (ev):

   -54.4405 -30.5809 -30.5224 -30.4790 -12.5913 -11.4334  -4.1383  -2.5448
    -1.7640  -1.7047  -1.3709  -0.2294   1.1514   3.1344   3.2657   3.3741
     3.7902   6.1978   6.8719   7.3319   9.2090   9.4524  10.0670  11.3532
    11.4257

     occupation numbers 
     1.0000   1.0000   1.0000   1.0000   1.0000   1.0000   1.0000   1.0000
     1.0000   1.0000   1.0000   1.0011  -0.0009  -0.0000  -0.0000  -0.0000
    -0.0000  -0.0000  -0.0000  -0.0000  -0.0000  -0.0000  -0.0000  -0.0000
    -0.0000

          k = 0.0833 0.2406 0.0000 (  3816 PWs)   bands (ev):

   -54.4348 -30.5851 -30.5674 -30.4963 -12.3206 -11.3581  -3.9002  -2.9690
    -2.2068  -1.7721  -1.5239  -0.2339   0.7086   3.0931   3.2696   3.3343
     4.2948   6.7988   7.7098   7.8149   9.4311   9.7387   9.9128  11.0899
    11.7157

     occupation numbers 
     1.0000   1.0000   1.0000   1.0000   1.0000   1.0000   1.0000   1.0000
     1.0000   1.0000   1.0000   1.0010  -0.0177  -0.0000  -0.0000  -0.0000
    -0.0000  -0.0000  -0.0000  -0.0000  -0.0000  -0.0000  -0.0000  -0.0000
    -0.0000

          k = 0.0833 0.3368 0.0000 (  3808 PWs)   bands (ev):

   -54.4283 -30.6564 -30.5517 -30.5165 -11.9881 -11.2654  -3.9374  -3.0802
    -2.7810  -2.0415  -1.2900  -0.4093   0.3204   3.0397   3.3682   3.6633
     4.7319   7.3306   8.1624   8.4891   9.0625   9.4300  10.3635  11.4659
    11.5611

     occupation numbers 
     1.0000   1.0000   1.0000   1.0000   1.0000   1.0000   1.0000   1.0000
     1.0000   1.0000   1.0000   1.0000   0.8628  -0.0000  -0.0000  -0.0000
    -0.0000  -0.0000  -0.0000  -0.0000  -0.0000  -0.0000  -0.0000  -0.0000
    -0.0000

          k = 0.0833 0.4330 0.0000 (  3789 PWs)   bands (ev):

   -54.4226 -30.7174 -30.5382 -30.5339 -11.6783 -11.1793  -4.2137  -3.2593
    -2.9907  -2.1960  -1.1325  -0.6044   0.2544   3.1067   3.4122   4.1260
     4.9584   7.4151   8.1852   8.5091   9.2282   9.5236  10.7676  11.2520
    11.3004

     occupation numbers 
     1.0000   1.0000   1.0000   1.0000   1.0000   1.0000   1.0000   1.0000
     1.0000   1.0000   1.0000   1.0000   0.9696  -0.0000  -0.0000  -0.0000
    -0.0000  -0.0000  -0.0000  -0.0000  -0.0000  -0.0000  -0.0000  -0.0000
    -0.0000

          k = 0.0833 0.5292 0.0000 (  3770 PWs)   bands (ev):

   -54.4194 -30.7522 -30.5439 -30.5303 -11.4880 -11.1268  -4.3945  -3.5262
    -2.9999  -2.2661  -1.0402  -0.7191   0.4073   3.0804   3.5392   4.4754
     4.9555   6.8315   8.5746   8.6705   9.3752   9.9969  10.3925  10.9971
    11.0036

     occupation numbers 
     1.0000   1.0000   1.0000   1.0000   1.0000   1.0000   1.0000   1.0000
     1.0000   1.0000   1.0000   1.0000   0.6393  -0.0000  -0.0000  -0.0000
    -0.0000  -0.0000  -0.0000  -0.0000  -0.0000  -0.0000  -0.0000  -0.0000
    -0.0000

          k = 0.1667 0.2887 0.0000 (  3803 PWs)   bands (ev):

   -54.4292 -30.6393 -30.5538 -30.5216 -12.0347 -11.2770  -3.8372  -3.0886
    -2.6824  -2.1092  -1.4431  -0.2607   0.3699   3.0003   3.3810   3.4382
     4.7853   7.3281   8.1223   8.7273   9.2507   9.7428  10.0353  11.1892
    11.4913

     occupation numbers 
     1.0000   1.0000   1.0000   1.0000   1.0000   1.0000   1.0000   1.0000
     1.0000   1.0000   1.0000   1.0007   0.7451  -0.0000  -0.0000  -0.0000
    -0.0000  -0.0000  -0.0000  -0.0000  -0.0000  -0.0000  -0.0000  -0.0000
    -0.0000

          k = 0.1667 0.3849 0.0000 (  3778 PWs)   bands (ev):

   -54.4235 -30.6902 -30.5496 -30.5403 -11.7303 -11.1889  -3.9899  -3.2513
    -2.9563  -2.1841  -1.5438  -0.4534   0.2602   3.1628   3.3307   3.8159
     5.0703   7.7875   8.5455   8.5894   9.5289   9.5530  10.3874  11.0299
    11.7173

     occupation numbers 
     1.0000   1.0000   1.0000   1.0000   1.0000   1.0000   1.0000   1.0000
     1.0000   1.0000   1.0000   1.0000   0.9626  -0.0000  -0.0000  -0.0000
    -0.0000  -0.0000  -0.0000  -0.0000  -0.0000  -0.0000  -0.0000  -0.0000
    -0.0000

          k = 0.1667 0.4811 0.0000 (  3766 PWs)   bands (ev):

   -54.4194 -30.7262 -30.5709 -30.5303 -11.4935 -11.1194  -4.1184  -3.6585
    -2.9218  -2.1521  -1.6591  -0.6815   0.4245   3.0043   3.6260   4.2528
     5.0632   7.4098   8.7503   9.0226   9.5953   9.6325  10.4147  11.2540
    11.3820

     occupation numbers 
     1.0000   1.0000   1.0000   1.0000   1.0000   1.0000   1.0000   1.0000
     1.0000   1.0000   1.0000   1.0000   0.5876  -0.0000  -0.0000  -0.0000
    -0.0000  -0.0000  -0.0000  -0.0000  -0.0000  -0.0000  -0.0000  -0.0000
    -0.0000

          k = 0.1667 0.5774 0.0000 (  3770 PWs)   bands (ev):

   -54.4178 -30.7392 -30.5788 -30.5267 -11.4033 -11.0927  -4.1563  -3.8040
    -2.9620  -2.1215  -1.6823  -0.7841   0.5713   2.8238   3.8586   4.5177
     4.9323   7.0523   9.2085   9.3237   9.4170   9.6199  10.5266  11.1225
    11.2819

     occupation numbers 
     1.0000   1.0000   1.0000   1.0000   1.0000   1.0000   1.0000   1.0000
     1.0000   1.0000   1.0000   1.0000   0.1675  -0.0000  -0.0000  -0.0000
    -0.0000  -0.0000  -0.0000  -0.0000  -0.0000  -0.0000  -0.0000  -0.0000
    -0.0000

          k = 0.2500 0.4330 0.0000 (  3779 PWs)   bands (ev):

   -54.4194 -30.7089 -30.5886 -30.5303 -11.4962 -11.1157  -3.9456  -3.7163
    -2.8345  -2.1081  -2.0327  -0.6540   0.4271   2.9624   3.6634   4.1009
     5.1823   7.8723   8.5397   9.0480   9.4956   9.8878  10.9226  11.1794
    11.7172

     occupation numbers 
     1.0000   1.0000   1.0000   1.0000   1.0000   1.0000   1.0000   1.0000
     1.0000   1.0000   1.0000   1.0000   0.5797  -0.0000  -0.0000  -0.0000
    -0.0000  -0.0000  -0.0000  -0.0000  -0.0000  -0.0000  -0.0000  -0.0000
    -0.0000

          k = 0.2500 0.5292 0.0000 (  3782 PWs)   bands (ev):

   -54.4170 -30.7134 -30.6175 -30.5246 -11.3561 -11.0699  -3.9871  -3.8024
    -2.8825  -2.3665  -1.9726  -0.8692   0.7129   2.5423   4.1329   4.3461
     5.1503   7.4615   8.5110   9.4590   9.9307  10.3204  11.0966  11.4709
    11.4894

     occupation numbers 
     1.0000   1.0000   1.0000   1.0000   1.0000   1.0000   1.0000   1.0000
     1.0000   1.0000   1.0000   1.0000  -0.0199  -0.0000  -0.0000  -0.0000
    -0.0000  -0.0000  -0.0000  -0.0000  -0.0000  -0.0000  -0.0000  -0.0000
    -0.0000

          k = 0.3333 0.5774 0.0000 (  3798 PWs)   bands (ev):

   -54.4161 -30.6945 -30.6489 -30.5225 -11.3055 -11.0504  -4.1103  -3.4460
    -3.0004  -2.7459  -1.8540  -0.9929   0.9209   2.2434   4.3574   4.3949
     5.2170   7.4983   8.1766   9.6719  10.4588  10.7963  11.3533  11.4251
    11.5492

     occupation numbers 
     1.0000   1.0000   1.0000   1.0000   1.0000   1.0000   1.0000   1.0000
     1.0000   1.0000   1.0000   1.0000  -0.0177  -0.0000  -0.0000  -0.0000
    -0.0000  -0.0000  -0.0000  -0.0000  -0.0000  -0.0000  -0.0000  -0.0000
    -0.0000

     the Fermi energy is     0.4528 ev

!    total energy              =    -453.94137198 Ry

     total all-electron energy =     -9224.145883 Ry
     estimated scf accuracy    <          5.3E-09 Ry
     smearing contrib. (-TS)   =      -0.00148363 Ry
     internal energy E=F+TS    =    -453.93988835 Ry

     The total energy is F=E-TS. E is the sum of the following terms:
     one-electron contribution =    -439.59137342 Ry
     hartree contribution      =     223.91804880 Ry
     xc contribution           =     -32.51651670 Ry
     ewald contribution        =      88.36770849 Ry
     one-center paw contrib.   =    -294.11775552 Ry
      -> PAW hartree energy AE =      84.64626799 Ry
      -> PAW hartree energy PS =     -84.16449778 Ry
      -> PAW xc energy AE      =    -276.22454182 Ry
      -> PAW xc energy PS      =      23.31907925 Ry
      -> total E_H with PAW    =     224.39981901 Ry
      -> total E_XC with PAW   =    -285.42197927 Ry

     convergence has been achieved in   8 iterations

     negative rho (up, down):  1.105E-04 0.000E+00

     Forces acting on atoms (cartesian axes, Ry/au):

     atom    1 type  2   force =     0.00000000   -0.00000000   -0.01887599
     atom    2 type  1   force =     0.00000000    0.00000000    0.00000000
     atom    3 type  2   force =     0.00000000    0.00000000    0.01887599
     The non-local contrib.  to forces
     atom    1 type  2   force =     0.00000000   -0.00000000   -0.14121816
     atom    2 type  1   force =     0.00000000    0.00000000    0.00000000
     atom    3 type  2   force =    -0.00000000   -0.00000000    0.14121816
     The ionic contribution  to forces
     atom    1 type  2   force =    -0.00000000    0.00000001   24.74302334
     atom    2 type  1   force =     0.00000000   -0.00000001    0.00000000
     atom    3 type  2   force =    -0.00000000    0.00000001  -24.74302334
     The local contribution  to forces
     atom    1 type  2   force =    -0.00000000    0.00000001  -24.62094555
     atom    2 type  1   force =    -0.00000000   -0.00000009   -0.00000000
     atom    3 type  2   force =    -0.00000000    0.00000001   24.62094555
     The core correction contribution to forces
     atom    1 type  2   force =     0.00000000   -0.00000000    0.00028005
     atom    2 type  1   force =     0.00000000    0.00000000   -0.00000000
     atom    3 type  2   force =     0.00000000   -0.00000000   -0.00028005
     The Hubbard contrib.    to forces
     atom    1 type  2   force =     0.00000000    0.00000000    0.00000000
     atom    2 type  1   force =     0.00000000    0.00000000    0.00000000
     atom    3 type  2   force =     0.00000000    0.00000000    0.00000000
     The SCF correction term to forces
     atom    1 type  2   force =     0.00000000   -0.00000000   -0.00001567
     atom    2 type  1   force =    -0.00000000    0.00000000    0.00000000
     atom    3 type  2   force =     0.00000000   -0.00000000    0.00001567

     Total force =     0.026695     Total SCF correction =     0.000022


     Computing stress (Cartesian axis) and pressure


     negative rho (up, down):  1.105E-04 0.000E+00
          total   stress  (Ry/bohr**3)                   (kbar)     P=      -38.76
  -0.00033115   0.00000000  -0.00000000          -48.71        0.00       -0.00
   0.00000000  -0.00033115   0.00000000            0.00      -48.71        0.00
  -0.00000000   0.00000000  -0.00012822           -0.00        0.00      -18.86

     kinetic stress (kbar)   6607.56      0.00      0.00
                                0.00   6607.56      0.00
                                0.00      0.00   6715.91

     local   stress (kbar) -72718.57      0.00     -0.00
                                0.00 -72718.57      0.00
                               -0.00      0.00  67383.45

     nonloc. stress (kbar)   3527.35     -0.00      0.00
                               -0.00   3527.35     -0.00
                                0.00     -0.00   3530.16

     hartree stress (kbar)  34654.45     -0.00      0.00
                               -0.00  34654.45     -0.00
                                0.00     -0.00 -32197.95

     exc-cor stress (kbar)    276.66      0.00      0.00
                                0.00    276.66      0.00
                                0.00      0.00    276.66

     corecor stress (kbar)  -1721.12      0.00     -0.00
                                0.00  -1721.12     -0.00
                               -0.00     -0.00  -1722.77

     ewald   stress (kbar)  29324.95     -0.00      0.00
                               -0.00  29324.95      0.00
                                0.00      0.00 -44004.33

     hubbard stress (kbar)      0.00      0.00      0.00
                                0.00      0.00      0.00
                                0.00      0.00      0.00

     DFT-D   stress (kbar)      0.00      0.00      0.00
                                0.00      0.00      0.00
                                0.00      0.00      0.00

     XDM     stress (kbar)      0.00      0.00      0.00
                                0.00      0.00      0.00
                                0.00      0.00      0.00

     dft-nl  stress (kbar)      0.00      0.00      0.00
                                0.00      0.00      0.00
                                0.00      0.00      0.00

     TS-vdW  stress (kbar)      0.00      0.00      0.00
                                0.00      0.00      0.00
                                0.00      0.00      0.00



     BFGS Geometry Optimization

     number of scf cycles    =   1
     number of bfgs steps    =   0

     enthalpy new            =    -453.9413719820 Ry

     new trust radius        =       0.0493290092 bohr
     new conv_thr            =       0.0000000100 Ry

     new unit-cell volume =    870.16088 a.u.^3 (   128.94454 Ang^3 )
     density =      2.02230 g/cm^3

CELL_PARAMETERS (alat=  6.45908389)
   0.991721245   0.000000000  -0.000000000
  -0.495860622   0.858855791   0.000000000
  -0.000000000   0.000000000   3.791201915

ATOMIC_POSITIONS (crystal)
S             0.3333333330        0.6666666660        0.3674316350
Nb            0.0000000000        0.0000000000        0.2500000000
S             0.3333333330        0.6666666660        0.1325683650



     Writing output data file ./tmp/NbS2.save/
     NEW-OLD atomic charge density approx. for the potential

     negative rho (up, down):  1.266E-04 0.000E+00
     extrapolated charge   24.49914, renormalised to   25.00000

     total cpu time spent up to now is       59.9 secs

     Self-consistent Calculation

     iteration #  1     ecut=    40.00 Ry     beta= 0.70
     Davidson diagonalization with overlap
     c_bands:  1 eigenvalues not converged
     c_bands:  1 eigenvalues not converged
     ethr =  1.00E-06,  avg # of iterations = 15.5

     negative rho (up, down):  1.787E-04 0.000E+00

     total cpu time spent up to now is       69.5 secs

     total energy              =    -452.30986855 Ry
     estimated scf accuracy    <       1.63283916 Ry

     iteration #  2     ecut=    40.00 Ry     beta= 0.70
     Davidson diagonalization with overlap
     ethr =  6.53E-03,  avg # of iterations =  5.3

     total cpu time spent up to now is       75.0 secs

     total energy              =    -452.89891972 Ry
     estimated scf accuracy    <      17.56895576 Ry

     iteration #  3     ecut=    40.00 Ry     beta= 0.70
     Davidson diagonalization with overlap
     ethr =  6.53E-03,  avg # of iterations =  4.2

     total cpu time spent up to now is       79.6 secs

     total energy              =    -454.02285533 Ry
     estimated scf accuracy    <       1.68348449 Ry

     iteration #  4     ecut=    40.00 Ry     beta= 0.70
     Davidson diagonalization with overlap
     ethr =  6.53E-03,  avg # of iterations =  1.6

     total cpu time spent up to now is       82.7 secs

     total energy              =    -453.97959738 Ry
     estimated scf accuracy    <       0.73120074 Ry

     iteration #  5     ecut=    40.00 Ry     beta= 0.70
     Davidson diagonalization with overlap
     ethr =  2.92E-03,  avg # of iterations =  1.3

     negative rho (up, down):  2.170E-08 0.000E+00

     total cpu time spent up to now is       85.7 secs

     total energy              =    -453.95815937 Ry
     estimated scf accuracy    <       0.32142254 Ry

     iteration #  6     ecut=    40.00 Ry     beta= 0.70
     Davidson diagonalization with overlap
     ethr =  1.29E-03,  avg # of iterations =  1.6

     negative rho (up, down):  4.097E-07 0.000E+00

     total cpu time spent up to now is       88.9 secs

     total energy              =    -453.95676506 Ry
     estimated scf accuracy    <       0.13204672 Ry

     iteration #  7     ecut=    40.00 Ry     beta= 0.70
     Davidson diagonalization with overlap
     ethr =  5.28E-04,  avg # of iterations =  2.0

     negative rho (up, down):  3.756E-06 0.000E+00

     total cpu time spent up to now is       92.2 secs

     total energy              =    -453.95599980 Ry
     estimated scf accuracy    <       0.07877001 Ry

     iteration #  8     ecut=    40.00 Ry     beta= 0.70
     Davidson diagonalization with overlap
     ethr =  3.15E-04,  avg # of iterations =  1.6

     negative rho (up, down):  1.082E-06 0.000E+00

     total cpu time spent up to now is       95.3 secs

     total energy              =    -453.95594986 Ry
     estimated scf accuracy    <       0.06311137 Ry

     iteration #  9     ecut=    40.00 Ry     beta= 0.70
     Davidson diagonalization with overlap
     ethr =  2.52E-04,  avg # of iterations =  1.3

     negative rho (up, down):  2.400E-05 0.000E+00

     total cpu time spent up to now is       98.3 secs

     total energy              =    -453.94674232 Ry
     estimated scf accuracy    <       0.05990846 Ry

     iteration # 10     ecut=    40.00 Ry     beta= 0.70
     Davidson diagonalization with overlap
     ethr =  2.40E-04,  avg # of iterations =  2.3

     negative rho (up, down):  7.049E-04 0.000E+00

     total cpu time spent up to now is      101.5 secs

     total energy              =    -453.94475321 Ry
     estimated scf accuracy    <       0.01555663 Ry

     iteration # 11     ecut=    40.00 Ry     beta= 0.70
     Davidson diagonalization with overlap
     ethr =  6.22E-05,  avg # of iterations =  4.9

     negative rho (up, down):  1.673E-04 0.000E+00

     total cpu time spent up to now is      105.0 secs

     total energy              =    -453.94646200 Ry
     estimated scf accuracy    <       0.00043179 Ry

     iteration # 12     ecut=    40.00 Ry     beta= 0.70
     Davidson diagonalization with overlap
     ethr =  1.73E-06,  avg # of iterations =  5.7

     negative rho (up, down):  1.901E-04 0.000E+00

     total cpu time spent up to now is      109.6 secs

     total energy              =    -453.94650244 Ry
     estimated scf accuracy    <       0.00079068 Ry

     iteration # 13     ecut=    40.00 Ry     beta= 0.70
     Davidson diagonalization with overlap
     ethr =  1.73E-06,  avg # of iterations =  1.0

     negative rho (up, down):  1.523E-04 0.000E+00

     total cpu time spent up to now is      112.6 secs

     total energy              =    -453.94678436 Ry
     estimated scf accuracy    <       0.00085235 Ry

     iteration # 14     ecut=    40.00 Ry     beta= 0.70
     Davidson diagonalization with overlap
     ethr =  1.73E-06,  avg # of iterations =  2.0

     negative rho (up, down):  1.390E-04 0.000E+00

     total cpu time spent up to now is      115.9 secs

     total energy              =    -453.94621394 Ry
     estimated scf accuracy    <       0.00175900 Ry

     iteration # 15     ecut=    40.00 Ry     beta= 0.70
     Davidson diagonalization with overlap
     ethr =  1.73E-06,  avg # of iterations =  2.0

     negative rho (up, down):  1.358E-04 0.000E+00

     total cpu time spent up to now is      119.5 secs

     total energy              =    -453.94632334 Ry
     estimated scf accuracy    <       0.00027542 Ry

     iteration # 16     ecut=    40.00 Ry     beta= 0.70
     Davidson diagonalization with overlap
     ethr =  1.10E-06,  avg # of iterations =  1.0

     negative rho (up, down):  1.310E-04 0.000E+00

     total cpu time spent up to now is      122.6 secs

     total energy              =    -453.94626282 Ry
     estimated scf accuracy    <       0.00019196 Ry

     iteration # 17     ecut=    40.00 Ry     beta= 0.70
     Davidson diagonalization with overlap
     ethr =  7.68E-07,  avg # of iterations =  1.3

     negative rho (up, down):  1.421E-04 0.000E+00

     total cpu time spent up to now is      125.7 secs

     total energy              =    -453.94627485 Ry
     estimated scf accuracy    <       0.00001613 Ry

     iteration # 18     ecut=    40.00 Ry     beta= 0.70
     Davidson diagonalization with overlap
     ethr =  6.45E-08,  avg # of iterations =  2.0

     negative rho (up, down):  1.275E-04 0.000E+00

     total cpu time spent up to now is      129.4 secs

     total energy              =    -453.94627706 Ry
     estimated scf accuracy    <       0.00000084 Ry

     iteration # 19     ecut=    40.00 Ry     beta= 0.70
     Davidson diagonalization with overlap
     ethr =  3.36E-09,  avg # of iterations =  2.0

     negative rho (up, down):  1.280E-04 0.000E+00

     total cpu time spent up to now is      133.4 secs

     total energy              =    -453.94627728 Ry
     estimated scf accuracy    <       0.00000002 Ry

     iteration # 20     ecut=    40.00 Ry     beta= 0.70
     Davidson diagonalization with overlap
     ethr =  6.65E-11,  avg # of iterations =  3.6

     negative rho (up, down):  1.294E-04 0.000E+00

     total cpu time spent up to now is      137.7 secs

     End of self-consistent calculation

          k = 0.0000 0.0000 0.0000 (  3817 PWs)   bands (ev):

   -54.2457 -30.4173 -30.2687 -30.2687 -12.8097 -11.4126  -4.3859  -1.9350
    -1.9350  -0.8340  -0.8340  -0.5150   1.6753   3.4756   3.4756   3.7975
     3.7975   5.4699   6.3994   7.1172   8.6549   8.9869  10.8858  10.8858
    12.3440

     occupation numbers 
     1.0000   1.0000   1.0000   1.0000   1.0000   1.0000   1.0000   1.0000
     1.0000   1.0000   1.0000   1.0000  -0.0000  -0.0000  -0.0000  -0.0000
    -0.0000  -0.0000  -0.0000  -0.0000  -0.0000  -0.0000  -0.0000  -0.0000
    -0.0000

          k =-0.0000 0.0970-0.0000 (  3831 PWs)   bands (ev):

   -54.2437 -30.4127 -30.2916 -30.2738 -12.7269 -11.3912  -4.2889  -2.1485
    -1.8481  -1.2476  -0.9741  -0.2456   1.5584   3.3991   3.6504   3.6618
     3.7150   5.8654   6.5873   7.2432   9.0671   9.1148  10.6350  11.1523
    12.2159

     occupation numbers 
     1.0000   1.0000   1.0000   1.0000   1.0000   1.0000   1.0000   1.0000
     1.0000   1.0000   1.0000   1.0001  -0.0000  -0.0000  -0.0000  -0.0000
    -0.0000  -0.0000  -0.0000  -0.0000  -0.0000  -0.0000  -0.0000  -0.0000
    -0.0000

          k =-0.0000 0.1941-0.0000 (  3811 PWs)   bands (ev):

   -54.2383 -30.3998 -30.3534 -30.2876 -12.4946 -11.3310  -4.0446  -2.6258
    -1.8273  -1.6068  -1.3070  -0.1373   1.1775   3.4330   3.4822   3.5261
     4.1100   6.5660   7.3098   7.5633   9.4033   9.9140  10.1690  11.3701
    12.7020

     occupation numbers 
     1.0000   1.0000   1.0000   1.0000   1.0000   1.0000   1.0000   1.0000
     1.0000   1.0000   1.0000   1.0007  -0.0036  -0.0000  -0.0000  -0.0000
    -0.0000  -0.0000  -0.0000  -0.0000  -0.0000  -0.0000  -0.0000  -0.0000
    -0.0000

          k =-0.0000 0.2911-0.0000 (  3801 PWs)   bands (ev):

   -54.2309 -30.4367 -30.3823 -30.3064 -12.1602 -11.2444  -3.8827  -2.9925
    -2.4067  -1.6834  -1.2708  -0.2707   0.6598   3.3492   3.4990   3.7769
     4.6150   7.1144   7.9999   8.3584   9.3814   9.7791  10.1708  11.5351
    12.2874

     occupation numbers 
     1.0000   1.0000   1.0000   1.0000   1.0000   1.0000   1.0000   1.0000
     1.0000   1.0000   1.0000   1.0001   0.2433  -0.0000  -0.0000  -0.0000
    -0.0000  -0.0000  -0.0000  -0.0000  -0.0000  -0.0000  -0.0000  -0.0000
    -0.0000

          k =-0.0000 0.3881-0.0000 (  3803 PWs)   bands (ev):

   -54.2235 -30.5186 -30.3647 -30.3251 -11.8008 -11.1520  -4.1068  -2.9700
    -2.9172  -2.0019  -0.9335  -0.4505   0.3438   3.2736   3.6146   4.2431
     5.0225   7.5473   8.3592   8.3912   9.3482   9.3557  11.0946  11.5751
    11.9966

     occupation numbers 
     1.0000   1.0000   1.0000   1.0000   1.0000   1.0000   1.0000   1.0000
     1.0000   1.0000   1.0000   1.0000   0.9997  -0.0000  -0.0000  -0.0000
    -0.0000  -0.0000  -0.0000  -0.0000  -0.0000  -0.0000  -0.0000  -0.0000
    -0.0000

          k =-0.0000 0.4851-0.0000 (  3776 PWs)   bands (ev):

   -54.2180 -30.5778 -30.3517 -30.3387 -11.5171 -11.0801  -4.3820  -3.2728
    -2.9452  -2.2091  -0.6931  -0.5653   0.3959   3.3002   3.7077   4.5838
     5.2676   7.1403   8.4204   8.5228   9.4469   9.9235  11.0695  11.2587
    12.2971

     occupation numbers 
     1.0000   1.0000   1.0000   1.0000   1.0000   1.0000   1.0000   1.0000
     1.0000   1.0000   1.0000   1.0000   0.9407  -0.0000  -0.0000  -0.0000
    -0.0000  -0.0000  -0.0000  -0.0000  -0.0000  -0.0000  -0.0000  -0.0000
    -0.0000

          k = 0.0000-0.5822 0.0000 (  3754 PWs)   bands (ev):

   -54.2160 -30.5993 -30.3470 -30.3437 -11.4080 -11.0528  -4.4879  -3.4006
    -2.9687  -2.2806  -0.6081  -0.6017   0.5084   3.3323   3.7339   4.6958
     5.3470   6.7798   8.5639   8.6848   9.5926  10.1671  11.0684  11.0737
    11.7649

     occupation numbers 
     1.0000   1.0000   1.0000   1.0000   1.0000   1.0000   1.0000   1.0000
     1.0000   1.0000   1.0000   1.0000   0.6933  -0.0000  -0.0000  -0.0000
    -0.0000  -0.0000  -0.0000  -0.0000  -0.0000  -0.0000  -0.0000  -0.0000
    -0.0000

          k = 0.0840 0.1455-0.0000 (  3821 PWs)   bands (ev):

   -54.2400 -30.4039 -30.3327 -30.2844 -12.5693 -11.3503  -4.1149  -2.4869
    -1.6914  -1.6287  -1.2833  -0.0899   1.3062   3.3376   3.4823   3.6003
     4.0196   6.4083   7.0484   7.4634   9.3384   9.7209  10.2940  11.5818
    11.6196

     occupation numbers 
     1.0000   1.0000   1.0000   1.0000   1.0000   1.0000   1.0000   1.0000
     1.0000   1.0000   1.0000   1.0015  -0.0005  -0.0000  -0.0000  -0.0000
    -0.0000  -0.0000  -0.0000  -0.0000  -0.0000  -0.0000  -0.0000  -0.0000
    -0.0000

          k = 0.0840 0.2426-0.0000 (  3816 PWs)   bands (ev):

   -54.2336 -30.4023 -30.3887 -30.3036 -12.2853 -11.2762  -3.8807  -2.9017
    -2.1429  -1.6970  -1.4371  -0.0894   0.8462   3.3020   3.4794   3.5515
     4.5489   6.9652   7.8448   8.0773   9.6241   9.9303  10.1193  11.3431
    12.3610

     occupation numbers 
     1.0000   1.0000   1.0000   1.0000   1.0000   1.0000   1.0000   1.0000
     1.0000   1.0000   1.0000   1.0016  -0.0258  -0.0000  -0.0000  -0.0000
    -0.0000  -0.0000  -0.0000  -0.0000  -0.0000  -0.0000  -0.0000  -0.0000
    -0.0000

          k = 0.0840 0.3396-0.0000 (  3808 PWs)   bands (ev):

   -54.2262 -30.4814 -30.3711 -30.3258 -11.9362 -11.1850  -3.9260  -2.9970
    -2.7295  -1.9725  -1.1886  -0.2685   0.4378   3.2473   3.5892   3.8875
     5.0061   7.4923   8.2997   8.7791   9.2913   9.6169  10.5536  11.6906
    11.8383

     occupation numbers 
     1.0000   1.0000   1.0000   1.0000   1.0000   1.0000   1.0000   1.0000
     1.0000   1.0000   1.0000   1.0001   0.8673  -0.0000  -0.0000  -0.0000
    -0.0000  -0.0000  -0.0000  -0.0000  -0.0000  -0.0000  -0.0000  -0.0000
    -0.0000

          k = 0.0840 0.4366-0.0000 (  3789 PWs)   bands (ev):

   -54.2197 -30.5489 -30.3559 -30.3451 -11.6108 -11.1002  -4.1956  -3.2173
    -2.9157  -2.1283  -1.0203  -0.4700   0.3680   3.3235   3.6405   4.3632
     5.2371   7.6131   8.4167   8.6515   9.4423   9.7459  11.0027  11.4622
    11.5016

     occupation numbers 
     1.0000   1.0000   1.0000   1.0000   1.0000   1.0000   1.0000   1.0000
     1.0000   1.0000   1.0000   1.0000   0.9765  -0.0000  -0.0000  -0.0000
    -0.0000  -0.0000  -0.0000  -0.0000  -0.0000  -0.0000  -0.0000  -0.0000
    -0.0000

          k = 0.0840 0.5337-0.0000 (  3770 PWs)   bands (ev):

   -54.2160 -30.5874 -30.3561 -30.3470 -11.4107 -11.0485  -4.3708  -3.4893
    -2.9398  -2.1980  -0.9199  -0.5891   0.5286   3.3023   3.7795   4.7201
     5.2257   7.0287   8.8125   8.8609   9.5835  10.2122  10.6077  11.1869
    11.1953

     occupation numbers 
     1.0000   1.0000   1.0000   1.0000   1.0000   1.0000   1.0000   1.0000
     1.0000   1.0000   1.0000   1.0000   0.6344  -0.0000  -0.0000  -0.0000
    -0.0000  -0.0000  -0.0000  -0.0000  -0.0000  -0.0000  -0.0000  -0.0000
    -0.0000

          k = 0.1681 0.2911-0.0000 (  3803 PWs)   bands (ev):

   -54.2272 -30.4624 -30.3735 -30.3316 -11.9850 -11.1962  -3.8262  -3.0043
    -2.6319  -2.0406  -1.3462  -0.1120   0.4902   3.2007   3.6052   3.6520
     5.0636   7.4846   8.2636   9.0703   9.4544   9.9069  10.2092  11.4708
    11.7396

     occupation numbers 
     1.0000   1.0000   1.0000   1.0000   1.0000   1.0000   1.0000   1.0000
     1.0000   1.0000   1.0000   1.0011   0.7432  -0.0000  -0.0000  -0.0000
    -0.0000  -0.0000  -0.0000  -0.0000  -0.0000  -0.0000  -0.0000  -0.0000
    -0.0000

          k = 0.1681 0.3881-0.0000 (  3778 PWs)   bands (ev):

   -54.2207 -30.5188 -30.3624 -30.3582 -11.6652 -11.1090  -3.9732  -3.2176
    -2.8696  -2.1113  -1.4465  -0.3094   0.3727   3.3706   3.5604   4.0411
     5.3599   7.9534   8.7348   8.8284   9.7069   9.7817  10.6249  11.2836
    11.8398

     occupation numbers 
     1.0000   1.0000   1.0000   1.0000   1.0000   1.0000   1.0000   1.0000
     1.0000   1.0000   1.0000   1.0000   0.9712  -0.0000  -0.0000  -0.0000
    -0.0000  -0.0000  -0.0000  -0.0000  -0.0000  -0.0000  -0.0000  -0.0000
    -0.0000

          k = 0.1681 0.4851-0.0000 (  3766 PWs)   bands (ev):

   -54.2160 -30.5587 -30.3860 -30.3470 -11.4160 -11.0398  -4.0922  -3.6365
    -2.8497  -2.0724  -1.5590  -0.5462   0.5427   3.2215   3.8620   4.4904
     5.3447   7.6211   8.9623   9.1837   9.8110   9.8921  10.6265  11.4596
    11.5786

     occupation numbers 
     1.0000   1.0000   1.0000   1.0000   1.0000   1.0000   1.0000   1.0000
     1.0000   1.0000   1.0000   1.0000   0.5919  -0.0000  -0.0000  -0.0000
    -0.0000  -0.0000  -0.0000  -0.0000  -0.0000  -0.0000  -0.0000  -0.0000
    -0.0000

          k = 0.1681 0.5822-0.0000 (  3770 PWs)   bands (ev):

   -54.2143 -30.5730 -30.3948 -30.3429 -11.3211 -11.0132  -4.1246  -3.7861
    -2.9016  -2.0381  -1.5782  -0.6534   0.6958   3.0334   4.1109   4.7624
     5.2039   7.2528   9.4862   9.5276   9.6067   9.8259  10.7492  11.3055
    11.5007

     occupation numbers 
     1.0000   1.0000   1.0000   1.0000   1.0000   1.0000   1.0000   1.0000
     1.0000   1.0000   1.0000   1.0000   0.1567  -0.0000  -0.0000  -0.0000
    -0.0000  -0.0000  -0.0000  -0.0000  -0.0000  -0.0000  -0.0000  -0.0000
    -0.0000

          k = 0.2521 0.4366-0.0000 (  3779 PWs)   bands (ev):

   -54.2160 -30.5396 -30.4056 -30.3471 -11.4186 -11.0354  -3.9194  -3.7004
    -2.7479  -2.0244  -1.9492  -0.5154   0.5437   3.1764   3.8981   4.3292
     5.4803   8.0910   8.7538   9.1982   9.7296  10.0822  11.1423  11.4500
    11.9862

     occupation numbers 
     1.0000   1.0000   1.0000   1.0000   1.0000   1.0000   1.0000   1.0000
     1.0000   1.0000   1.0000   1.0000   0.5888  -0.0000  -0.0000  -0.0000
    -0.0000  -0.0000  -0.0000  -0.0000  -0.0000  -0.0000  -0.0000  -0.0000
    -0.0000

          k = 0.2521 0.5337-0.0000 (  3782 PWs)   bands (ev):

   -54.2133 -30.5446 -30.4375 -30.3406 -11.2709 -10.9892  -3.9813  -3.7635
    -2.8139  -2.2830  -1.8781  -0.7393   0.8412   2.7357   4.3957   4.5716
     5.4554   7.6736   8.7305   9.6212  10.1566  10.5510  11.3532  11.6801
    11.7101

     occupation numbers 
     1.0000   1.0000   1.0000   1.0000   1.0000   1.0000   1.0000   1.0000
     1.0000   1.0000   1.0000   1.0000  -0.0238  -0.0000  -0.0000  -0.0000
    -0.0000  -0.0000  -0.0000  -0.0000  -0.0000  -0.0000  -0.0000  -0.0000
    -0.0000

          k = 0.3361 0.5822-0.0000 (  3798 PWs)   bands (ev):

   -54.2123 -30.5241 -30.4719 -30.3382 -11.2175 -10.9692  -4.1104  -3.3926
    -2.9472  -2.6646  -1.7513  -0.8681   1.0593   2.4192   4.5749   4.6745
     5.5381   7.7021   8.3988   9.8319  10.6708  11.0324  11.6128  11.7306
    11.7472

     occupation numbers 
     1.0000   1.0000   1.0000   1.0000   1.0000   1.0000   1.0000   1.0000
     1.0000   1.0000   1.0000   1.0000  -0.0149  -0.0000  -0.0000  -0.0000
    -0.0000  -0.0000  -0.0000  -0.0000  -0.0000  -0.0000  -0.0000  -0.0000
    -0.0000

     the Fermi energy is     0.5724 ev

!    total energy              =    -453.94627729 Ry

     total all-electron energy =     -9224.150788 Ry
     estimated scf accuracy    <          3.1E-09 Ry
     smearing contrib. (-TS)   =      -0.00137083 Ry
     internal energy E=F+TS    =    -453.94490645 Ry

     The total energy is F=E-TS. E is the sum of the following terms:
     one-electron contribution =    -445.86702978 Ry
     hartree contribution      =     227.19796883 Ry
     xc contribution           =     -32.57591304 Ry
     ewald contribution        =      91.42317676 Ry
     one-center paw contrib.   =    -294.12310921 Ry
      -> PAW hartree energy AE =      85.01365559 Ry
      -> PAW hartree energy PS =     -84.53138426 Ry
      -> PAW xc energy AE      =    -276.27541595 Ry
      -> PAW xc energy PS      =      23.36567999 Ry
      -> total E_H with PAW    =     227.68024015 Ry
      -> total E_XC with PAW   =    -285.48564901 Ry

     convergence has been achieved in  20 iterations

     negative rho (up, down):  1.294E-04 0.000E+00

     Forces acting on atoms (cartesian axes, Ry/au):

     atom    1 type  2   force =    -0.00000000   -0.00000000   -0.00432105
     atom    2 type  1   force =    -0.00000000    0.00000000   -0.00000000
     atom    3 type  2   force =     0.00000000   -0.00000000    0.00432105
     The non-local contrib.  to forces
     atom    1 type  2   force =    -0.00000000    0.00000000   -0.11639277
     atom    2 type  1   force =     0.00000000   -0.00000000    0.00000000
     atom    3 type  2   force =     0.00000000    0.00000000    0.11639277
     The ionic contribution  to forces
     atom    1 type  2   force =     0.00000000    0.00000001   25.22905443
     atom    2 type  1   force =    -0.00000000   -0.00000001   -0.00000000
     atom    3 type  2   force =    -0.00000000    0.00000001  -25.22905443
     The local contribution  to forces
     atom    1 type  2   force =    -0.00000000    0.00000001  -25.11566891
     atom    2 type  1   force =    -0.00000000   -0.00000009   -0.00000000
     atom    3 type  2   force =    -0.00000000    0.00000001   25.11566891
     The core correction contribution to forces
     atom    1 type  2   force =    -0.00000000   -0.00000000   -0.00123688
     atom    2 type  1   force =    -0.00000000    0.00000000   -0.00000000
     atom    3 type  2   force =    -0.00000000   -0.00000000    0.00123688
     The Hubbard contrib.    to forces
     atom    1 type  2   force =     0.00000000    0.00000000    0.00000000
     atom    2 type  1   force =     0.00000000    0.00000000    0.00000000
     atom    3 type  2   force =     0.00000000    0.00000000    0.00000000
     The SCF correction term to forces
     atom    1 type  2   force =    -0.00000000   -0.00000000   -0.00007692
     atom    2 type  1   force =     0.00000000    0.00000000    0.00000000
     atom    3 type  2   force =    -0.00000000   -0.00000000    0.00007692

     Total force =     0.006111     Total SCF correction =     0.000109


     Computing stress (Cartesian axis) and pressure


     negative rho (up, down):  1.294E-04 0.000E+00
          total   stress  (Ry/bohr**3)                   (kbar)     P=      -25.86
  -0.00024745  -0.00000000   0.00000000          -36.40       -0.00        0.00
  -0.00000000  -0.00024745   0.00000000           -0.00      -36.40        0.00
  -0.00000000  -0.00000000  -0.00003247           -0.00       -0.00       -4.78

     kinetic stress (kbar)   6756.94      0.00      0.00
                               -0.00   6756.94     -0.00
                                0.00      0.00   6869.71

     local   stress (kbar) -75426.83      0.00      0.00
                                0.00 -75426.83     -0.00
                                0.00     -0.00  70150.51

     nonloc. stress (kbar)   3601.98     -0.00      0.00
                               -0.00   3601.98     -0.00
                                0.00     -0.00   3605.21

     hartree stress (kbar)  35949.12     -0.00      0.00
                               -0.00  35949.12      0.00
                                0.00      0.00 -33489.29

     exc-cor stress (kbar)    279.37      0.00      0.00
                                0.00    279.37      0.00
                                0.00      0.00    279.37

     corecor stress (kbar)  -1756.02      0.00     -0.00
                                0.00  -1756.02     -0.00
                               -0.00     -0.00  -1757.76

     ewald   stress (kbar)  30559.04     -0.00     -0.00
                               -0.00  30559.04     -0.00
                               -0.00     -0.00 -45662.53

     hubbard stress (kbar)      0.00      0.00      0.00
                                0.00      0.00      0.00
                                0.00      0.00      0.00

     DFT-D   stress (kbar)      0.00      0.00      0.00
                                0.00      0.00      0.00
                                0.00      0.00      0.00

     XDM     stress (kbar)      0.00      0.00      0.00
                                0.00      0.00      0.00
                                0.00      0.00      0.00

     dft-nl  stress (kbar)      0.00      0.00      0.00
                                0.00      0.00      0.00
                                0.00      0.00      0.00

     TS-vdW  stress (kbar)      0.00      0.00      0.00
                                0.00      0.00      0.00
                                0.00      0.00      0.00



     number of scf cycles    =   2
     number of bfgs steps    =   1

     enthalpy old            =    -453.9413719820 Ry
     enthalpy new            =    -453.9462772855 Ry

     CASE: enthalpy_new < enthalpy_old

     new trust radius        =       0.0738748245 bohr
     new conv_thr            =       0.0000000049 Ry

     new unit-cell volume =    846.78286 a.u.^3 (   125.48027 Ang^3 )
     density =      2.07813 g/cm^3

CELL_PARAMETERS (alat=  6.45908389)
   0.979303112  -0.000000000  -0.000000000
  -0.489651556   0.848101373   0.000000000
   0.000000000   0.000000000   3.783505625

ATOMIC_POSITIONS (crystal)
S             0.3333333330        0.6666666660        0.3669750486
Nb            0.0000000000        0.0000000000        0.2500000000
S             0.3333333330        0.6666666660        0.1330249514



     Writing output data file ./tmp/NbS2.save/
     NEW-OLD atomic charge density approx. for the potential

     negative rho (up, down):  1.436E-04 0.000E+00
     extrapolated charge   24.30983, renormalised to   25.00000

     total cpu time spent up to now is      159.1 secs

     Self-consistent Calculation

     iteration #  1     ecut=    40.00 Ry     beta= 0.70
     Davidson diagonalization with overlap
     c_bands:  1 eigenvalues not converged
     c_bands:  1 eigenvalues not converged
     ethr =  1.00E-06,  avg # of iterations = 16.3

     negative rho (up, down):  2.079E-04 0.000E+00

     total cpu time spent up to now is      169.9 secs

     total energy              =    -450.97039376 Ry
     estimated scf accuracy    <       2.96434070 Ry

     iteration #  2     ecut=    40.00 Ry     beta= 0.70
     Davidson diagonalization with overlap
     ethr =  1.00E-02,  avg # of iterations =  5.9

     total cpu time spent up to now is      175.9 secs

     total energy              =    -452.31278836 Ry
     estimated scf accuracy    <      28.29317690 Ry

     iteration #  3     ecut=    40.00 Ry     beta= 0.70
     Davidson diagonalization with overlap
     ethr =  1.00E-02,  avg # of iterations =  3.9

     total cpu time spent up to now is      180.6 secs

     total energy              =    -454.10709208 Ry
     estimated scf accuracy    <       3.14132743 Ry

     iteration #  4     ecut=    40.00 Ry     beta= 0.70
     Davidson diagonalization with overlap
     ethr =  1.00E-02,  avg # of iterations =  1.5

     total cpu time spent up to now is      183.6 secs

     total energy              =    -454.00954589 Ry
     estimated scf accuracy    <       1.41744912 Ry

     iteration #  5     ecut=    40.00 Ry     beta= 0.70
     Davidson diagonalization with overlap
     ethr =  5.67E-03,  avg # of iterations =  2.3

     total cpu time spent up to now is      186.9 secs

     total energy              =    -453.96535592 Ry
     estimated scf accuracy    <       0.62877117 Ry

     iteration #  6     ecut=    40.00 Ry     beta= 0.70
     Davidson diagonalization with overlap
     ethr =  2.52E-03,  avg # of iterations =  2.7

     negative rho (up, down):  9.192E-08 0.000E+00

     total cpu time spent up to now is      190.2 secs

     total energy              =    -453.97465846 Ry
     estimated scf accuracy    <       0.23839103 Ry

     iteration #  7     ecut=    40.00 Ry     beta= 0.70
     Davidson diagonalization with overlap
     ethr =  9.54E-04,  avg # of iterations =  2.1

     negative rho (up, down):  7.998E-08 0.000E+00

     total cpu time spent up to now is      193.5 secs

     total energy              =    -453.97850189 Ry
     estimated scf accuracy    <       0.16830619 Ry

     iteration #  8     ecut=    40.00 Ry     beta= 0.70
     Davidson diagonalization with overlap
     ethr =  6.73E-04,  avg # of iterations =  1.0

     negative rho (up, down):  1.007E-06 0.000E+00

     total cpu time spent up to now is      196.5 secs

     total energy              =    -453.96340171 Ry
     estimated scf accuracy    <       0.17109893 Ry

     iteration #  9     ecut=    40.00 Ry     beta= 0.70
     Davidson diagonalization with overlap
     ethr =  6.73E-04,  avg # of iterations =  1.8

     negative rho (up, down):  1.086E-04 0.000E+00

     total cpu time spent up to now is      199.7 secs

     total energy              =    -453.95775716 Ry
     estimated scf accuracy    <       0.09095126 Ry

     iteration # 10     ecut=    40.00 Ry     beta= 0.70
     Davidson diagonalization with overlap
     ethr =  3.64E-04,  avg # of iterations =  2.1

     negative rho (up, down):  1.965E-03 0.000E+00

     total cpu time spent up to now is      202.8 secs

     total energy              =    -453.94303143 Ry
     estimated scf accuracy    <       0.05104660 Ry

     iteration # 11     ecut=    40.00 Ry     beta= 0.70
     Davidson diagonalization with overlap
     ethr =  2.04E-04,  avg # of iterations =  3.3

     negative rho (up, down):  1.536E-04 0.000E+00

     total cpu time spent up to now is      206.2 secs

     total energy              =    -453.95013582 Ry
     estimated scf accuracy    <       0.00005598 Ry

     iteration # 12     ecut=    40.00 Ry     beta= 0.70
     Davidson diagonalization with overlap
     ethr =  2.24E-07,  avg # of iterations =  9.6

     negative rho (up, down):  1.448E-04 0.000E+00

     total cpu time spent up to now is      212.5 secs

     total energy              =    -453.95023450 Ry
     estimated scf accuracy    <       0.00000293 Ry

     iteration # 13     ecut=    40.00 Ry     beta= 0.70
     Davidson diagonalization with overlap
     ethr =  1.17E-08,  avg # of iterations =  2.1

     negative rho (up, down):  1.465E-04 0.000E+00

     total cpu time spent up to now is      215.9 secs

     total energy              =    -453.95023531 Ry
     estimated scf accuracy    <       0.00000051 Ry

     iteration # 14     ecut=    40.00 Ry     beta= 0.70
     Davidson diagonalization with overlap
     ethr =  2.05E-09,  avg # of iterations =  2.0

     negative rho (up, down):  1.464E-04 0.000E+00

     total cpu time spent up to now is      219.4 secs

     total energy              =    -453.95023528 Ry
     estimated scf accuracy    <       0.00000188 Ry

     iteration # 15     ecut=    40.00 Ry     beta= 0.70
     Davidson diagonalization with overlap
     ethr =  2.05E-09,  avg # of iterations =  1.0

     negative rho (up, down):  1.463E-04 0.000E+00

     total cpu time spent up to now is      222.5 secs

     total energy              =    -453.95023518 Ry
     estimated scf accuracy    <       0.00000122 Ry

     iteration # 16     ecut=    40.00 Ry     beta= 0.70
     Davidson diagonalization with overlap
     ethr =  2.05E-09,  avg # of iterations =  1.0

     negative rho (up, down):  1.484E-04 0.000E+00

     total cpu time spent up to now is      225.5 secs

     total energy              =    -453.95023462 Ry
     estimated scf accuracy    <       0.00000076 Ry

     iteration # 17     ecut=    40.00 Ry     beta= 0.70
     Davidson diagonalization with overlap
     ethr =  2.05E-09,  avg # of iterations =  1.9

     negative rho (up, down):  1.477E-04 0.000E+00

     total cpu time spent up to now is      228.8 secs

     End of self-consistent calculation

          k = 0.0000 0.0000 0.0000 (  3817 PWs)   bands (ev):

   -53.9669 -30.1714 -29.9888 -29.9888 -12.7626 -11.3002  -4.3404  -1.7851
    -1.7851  -0.6429  -0.6429  -0.3880   1.8555   3.7673   3.7673   4.1117
     4.1117   5.8174   6.5683   7.2944   9.0184   9.1593  11.1927  11.1927
    12.5051

     occupation numbers 
     1.0000   1.0000   1.0000   1.0000   1.0000   1.0000   1.0000   1.0000
     1.0000   1.0000   1.0000   1.0000  -0.0000  -0.0000  -0.0000  -0.0000
    -0.0000  -0.0000  -0.0000  -0.0000  -0.0000  -0.0000  -0.0000  -0.0000
    -0.0000

          k = 0.0000 0.0983-0.0000 (  3831 PWs)   bands (ev):

   -53.9645 -30.1660 -30.0152 -29.9946 -12.6741 -11.2784  -4.2394  -2.0047
    -1.6926  -1.1032  -0.7905  -0.0781   1.7442   3.6898   3.9408   3.9641
     4.0242   6.2048   6.7869   7.4174   9.2935   9.4467  10.9449  11.4718
    12.4186

     occupation numbers 
     1.0000   1.0000   1.0000   1.0000   1.0000   1.0000   1.0000   1.0000
     1.0000   1.0000   1.0000   1.0001  -0.0000  -0.0000  -0.0000  -0.0000
    -0.0000  -0.0000  -0.0000  -0.0000  -0.0000  -0.0000  -0.0000  -0.0000
    -0.0000

          k = 0.0000 0.1965-0.0000 (  3811 PWs)   bands (ev):

   -53.9580 -30.1509 -30.0867 -30.0104 -12.4257 -11.2171  -3.9877  -2.4908
    -1.7107  -1.4358  -1.1400   0.0374   1.3646   3.7301   3.7391   3.8260
     4.4363   6.8162   7.6473   7.7402   9.6047  10.2871  10.4854  11.6389
    12.9121

     occupation numbers 
     1.0000   1.0000   1.0000   1.0000   1.0000   1.0000   1.0000   1.0000
     1.0000   1.0000   1.0000   1.0007  -0.0031  -0.0000  -0.0000  -0.0000
    -0.0000  -0.0000  -0.0000  -0.0000  -0.0000  -0.0000  -0.0000  -0.0000
    -0.0000

          k = 0.0000 0.2948-0.0000 (  3801 PWs)   bands (ev):

   -53.9491 -30.1829 -30.1303 -30.0320 -12.0676 -11.1288  -3.8287  -2.8523
    -2.3110  -1.5336  -1.0786  -0.1048   0.8279   3.6456   3.7567   4.0904
     4.9646   7.3435   8.1839   8.7203   9.7427  10.0412  10.4151  11.8849
    12.6324

     occupation numbers 
     1.0000   1.0000   1.0000   1.0000   1.0000   1.0000   1.0000   1.0000
     1.0000   1.0000   1.0000   1.0000   0.2628  -0.0000  -0.0000  -0.0000
    -0.0000  -0.0000  -0.0000  -0.0000  -0.0000  -0.0000  -0.0000  -0.0000
    -0.0000

          k = 0.0000 0.3930-0.0000 (  3803 PWs)   bands (ev):

   -53.9402 -30.2773 -30.1095 -30.0534 -11.6820 -11.0347  -4.0539  -2.8369
    -2.8346  -1.8656  -0.7215  -0.2954   0.4981   3.5794   3.9048   4.5669
     5.3864   7.8018   8.5710   8.6883   9.6282   9.6618  11.4063  11.8726
    12.3572

     occupation numbers 
     1.0000   1.0000   1.0000   1.0000   1.0000   1.0000   1.0000   1.0000
     1.0000   1.0000   1.0000   1.0000   1.0144  -0.0000  -0.0000  -0.0000
    -0.0000  -0.0000  -0.0000  -0.0000  -0.0000  -0.0000  -0.0000  -0.0000
    -0.0000

          k = 0.0000 0.4913-0.0000 (  3776 PWs)   bands (ev):

   -53.9336 -30.3455 -30.0943 -30.0690 -11.3766 -10.9613  -4.3295  -3.2024
    -2.8317  -2.0813  -0.4688  -0.4168   0.5604   3.6249   4.0474   4.8999
     5.6368   7.4240   8.7010   8.7346   9.7499  10.2077  11.3197  11.5239
    12.6683

     occupation numbers 
     1.0000   1.0000   1.0000   1.0000   1.0000   1.0000   1.0000   1.0000
     1.0000   1.0000   1.0000   1.0000   0.9560  -0.0000  -0.0000  -0.0000
    -0.0000  -0.0000  -0.0000  -0.0000  -0.0000  -0.0000  -0.0000  -0.0000
    -0.0000

          k =-0.0000-0.5896 0.0000 (  3754 PWs)   bands (ev):

   -53.9312 -30.3702 -30.0887 -30.0747 -11.2587 -10.9335  -4.4358  -3.3336
    -2.8678  -2.1556  -0.4552  -0.3802   0.6821   3.6678   4.1034   5.0030
     5.7171   7.0363   8.8136   8.9881   9.8904  10.4141  11.3210  11.3721
    12.0155

     occupation numbers 
     1.0000   1.0000   1.0000   1.0000   1.0000   1.0000   1.0000   1.0000
     1.0000   1.0000   1.0000   1.0000   0.6983  -0.0000  -0.0000  -0.0000
    -0.0000  -0.0000  -0.0000  -0.0000  -0.0000  -0.0000  -0.0000  -0.0000
    -0.0000

          k = 0.0851 0.1474-0.0000 (  3821 PWs)   bands (ev):

   -53.9601 -30.1557 -30.0628 -30.0068 -12.5055 -11.2367  -4.0594  -2.3506
    -1.5254  -1.5038  -1.1182   0.0910   1.4954   3.6277   3.7518   3.8953
     4.3419   6.6805   7.3521   7.6389   9.5271  10.1097  10.6135  11.8719
    11.9213

     occupation numbers 
     1.0000   1.0000   1.0000   1.0000   1.0000   1.0000   1.0000   1.0000
     1.0000   1.0000   1.0000   1.0017  -0.0004  -0.0000  -0.0000  -0.0000
    -0.0000  -0.0000  -0.0000  -0.0000  -0.0000  -0.0000  -0.0000  -0.0000
    -0.0000

          k = 0.0851 0.2456-0.0000 (  3816 PWs)   bands (ev):

   -53.9524 -30.1433 -30.1378 -30.0288 -12.2015 -11.1612  -3.8229  -2.7654
    -2.0345  -1.5580  -1.2546   0.0943   1.0245   3.5676   3.7771   3.8314
     4.8978   7.1907   8.0286   8.4737   9.8856  10.2202  10.4038  11.6925
    12.3674

     occupation numbers 
     1.0000   1.0000   1.0000   1.0000   1.0000   1.0000   1.0000   1.0000
     1.0000   1.0000   1.0000   1.0018  -0.0268  -0.0000  -0.0000  -0.0000
    -0.0000  -0.0000  -0.0000  -0.0000  -0.0000  -0.0000  -0.0000  -0.0000
    -0.0000

          k = 0.0851 0.3439-0.0000 (  3808 PWs)   bands (ev):

   -53.9435 -30.2344 -30.1172 -30.0544 -11.8274 -11.0681  -3.8723  -2.8540
    -2.6403  -1.8469  -0.9935  -0.0951   0.5999   3.5240   3.8835   4.2001
     5.3720   7.7247   8.4890   9.1400   9.6371   9.8724  10.8502  11.9999
    12.2356

     occupation numbers 
     1.0000   1.0000   1.0000   1.0000   1.0000   1.0000   1.0000   1.0000
     1.0000   1.0000   1.0000   1.0001   0.8933  -0.0000  -0.0000  -0.0000
    -0.0000  -0.0000  -0.0000  -0.0000  -0.0000  -0.0000  -0.0000  -0.0000
    -0.0000

          k = 0.0851 0.4422-0.0000 (  3789 PWs)   bands (ev):

   -53.9357 -30.3122 -30.0991 -30.0765 -11.4774 -10.9813  -4.1407  -3.1458
    -2.7871  -2.0047  -0.8201  -0.3102   0.5350   3.6312   3.9638   4.6864
     5.5989   7.8988   8.7071   8.8481   9.7409  10.0426  11.3424  11.7642
    11.7787

     occupation numbers 
     1.0000   1.0000   1.0000   1.0000   1.0000   1.0000   1.0000   1.0000
     1.0000   1.0000   1.0000   1.0000   0.9854  -0.0000  -0.0000  -0.0000
    -0.0000  -0.0000  -0.0000  -0.0000  -0.0000  -0.0000  -0.0000  -0.0000
    -0.0000

          k = 0.0851 0.5404-0.0000 (  3770 PWs)   bands (ev):

   -53.9312 -30.3565 -30.0892 -30.0887 -11.2613 -10.9283  -4.3154  -3.4278
    -2.8329  -2.0729  -0.7137  -0.4383   0.7093   3.6386   4.1337   5.0485
     5.5679   7.2947   9.1102   9.1211   9.8811  10.5027  10.9194  11.4423
    11.4783

     occupation numbers 
     1.0000   1.0000   1.0000   1.0000   1.0000   1.0000   1.0000   1.0000
     1.0000   1.0000   1.0000   1.0000   0.6189  -0.0000  -0.0000  -0.0000
    -0.0000  -0.0000  -0.0000  -0.0000  -0.0000  -0.0000  -0.0000  -0.0000
    -0.0000

          k = 0.1702 0.2948-0.0000 (  3803 PWs)   bands (ev):

   -53.9447 -30.2125 -30.1199 -30.0611 -11.8796 -11.0792  -3.7714  -2.8585
    -2.5337  -1.9307  -1.1605   0.0774   0.6576   3.4587   3.9078   3.9525
     5.4356   7.7085   8.4595   9.5227   9.7599  10.1440  10.4737  11.8885
    12.0265

     occupation numbers 
     1.0000   1.0000   1.0000   1.0000   1.0000   1.0000   1.0000   1.0000
     1.0000   1.0000   1.0000   1.0014   0.7644  -0.0000  -0.0000  -0.0000
    -0.0000  -0.0000  -0.0000  -0.0000  -0.0000  -0.0000  -0.0000  -0.0000
    -0.0000

          k = 0.1702 0.3930-0.0000 (  3778 PWs)   bands (ev):

   -53.9369 -30.2775 -30.1020 -30.0966 -11.5356 -10.9894  -3.9157  -3.1458
    -2.7232  -2.0000  -1.2752  -0.1301   0.5428   3.6400   3.9011   4.3501
     5.7385   8.1976   8.9398   9.1767   9.9650  10.0914  10.9816  11.6564
    12.1179

     occupation numbers 
     1.0000   1.0000   1.0000   1.0000   1.0000   1.0000   1.0000   1.0000
     1.0000   1.0000   1.0000   1.0000   0.9773  -0.0000  -0.0000  -0.0000
    -0.0000  -0.0000  -0.0000  -0.0000  -0.0000  -0.0000  -0.0000  -0.0000
    -0.0000

          k = 0.1702 0.4913-0.0000 (  3766 PWs)   bands (ev):

   -53.9313 -30.3234 -30.1238 -30.0888 -11.2666 -10.9178  -4.0305  -3.5847
    -2.7244  -1.9502  -1.3902  -0.3837   0.7265   3.5492   4.1984   4.8047
     5.7108   7.9047   9.2378   9.4160  10.1202  10.2425  10.9294  11.7555
    11.8492

     occupation numbers 
     1.0000   1.0000   1.0000   1.0000   1.0000   1.0000   1.0000   1.0000
     1.0000   1.0000   1.0000   1.0000   0.5665  -0.0000  -0.0000  -0.0000
    -0.0000  -0.0000  -0.0000  -0.0000  -0.0000  -0.0000  -0.0000  -0.0000
    -0.0000

          k = 0.1702 0.5896-0.0000 (  3770 PWs)   bands (ev):

   -53.9292 -30.3399 -30.1339 -30.0839 -11.1639 -10.8901  -4.0597  -3.7415
    -2.7927  -1.9091  -1.4052  -0.4999   0.8886   3.3649   4.4700   5.0755
     5.5626   7.5162   9.8257   9.8322   9.8844  10.1154  11.0716  11.5604
    11.8063

     occupation numbers 
     1.0000   1.0000   1.0000   1.0000   1.0000   1.0000   1.0000   1.0000
     1.0000   1.0000   1.0000   1.0000   0.1207  -0.0000  -0.0000  -0.0000
    -0.0000  -0.0000  -0.0000  -0.0000  -0.0000  -0.0000  -0.0000  -0.0000
    -0.0000

          k = 0.2553 0.4422-0.0000 (  3779 PWs)   bands (ev):

   -53.9313 -30.3015 -30.1464 -30.0888 -11.2692 -10.9125  -3.8554  -3.6529
    -2.6009  -1.9048  -1.8082  -0.3456   0.7269   3.4975   4.2289   4.6282
     5.8753   8.3815   9.0423   9.4177  10.0369  10.3666  11.4461  11.8331
    12.3317

     occupation numbers 
     1.0000   1.0000   1.0000   1.0000   1.0000   1.0000   1.0000   1.0000
     1.0000   1.0000   1.0000   1.0000   0.5652  -0.0000  -0.0000  -0.0000
    -0.0000  -0.0000  -0.0000  -0.0000  -0.0000  -0.0000  -0.0000  -0.0000
    -0.0000

          k = 0.2553 0.5404-0.0000 (  3782 PWs)   bands (ev):

   -53.9280 -30.3072 -30.1832 -30.0812 -11.1091 -10.8638  -3.9489  -3.6880
    -2.6934  -2.1425  -1.7439  -0.5853   1.0410   3.0485   4.7580   4.8472
     5.8760   7.9602   9.0160   9.8627  10.4626  10.8865  11.7073  11.9481
    12.0672

     occupation numbers 
     1.0000   1.0000   1.0000   1.0000   1.0000   1.0000   1.0000   1.0000
     1.0000   1.0000   1.0000   1.0000  -0.0314  -0.0000  -0.0000  -0.0000
    -0.0000  -0.0000  -0.0000  -0.0000  -0.0000  -0.0000  -0.0000  -0.0000
    -0.0000

          k = 0.3404 0.5896-0.0000 (  3798 PWs)   bands (ev):

   -53.9268 -30.2837 -30.2227 -30.0784 -11.0510 -10.8422  -4.0858  -3.3000
    -2.8509  -2.5238  -1.6069  -0.7230   1.2709   2.7148   4.8305   5.0534
     5.9910   8.0000   8.6654  10.0696  10.9704  11.3884  11.9783  12.0297
    12.1643

     occupation numbers 
     1.0000   1.0000   1.0000   1.0000   1.0000   1.0000   1.0000   1.0000
     1.0000   1.0000   1.0000   1.0000  -0.0102  -0.0000  -0.0000  -0.0000
    -0.0000  -0.0000  -0.0000  -0.0000  -0.0000  -0.0000  -0.0000  -0.0000
    -0.0000

     the Fermi energy is     0.7479 ev

!    total energy              =    -453.95023476 Ry

     total all-electron energy =     -9224.154746 Ry
     estimated scf accuracy    <          3.0E-09 Ry
     smearing contrib. (-TS)   =      -0.00121220 Ry
     internal energy E=F+TS    =    -453.94902256 Ry

     The total energy is F=E-TS. E is the sum of the following terms:
     one-electron contribution =    -455.41186722 Ry
     hartree contribution      =     232.17596947 Ry
     xc contribution           =     -32.64917055 Ry
     ewald contribution        =      96.06566635 Ry
     one-center paw contrib.   =    -294.12962061 Ry
      -> PAW hartree energy AE =      85.45850330 Ry
      -> PAW hartree energy PS =     -84.97561089 Ry
      -> PAW xc energy AE      =    -276.33645778 Ry
      -> PAW xc energy PS      =      23.42146981 Ry
      -> total E_H with PAW    =     232.65886188 Ry
      -> total E_XC with PAW   =    -285.56415851 Ry

     convergence has been achieved in  17 iterations

     negative rho (up, down):  1.477E-04 0.000E+00

     Forces acting on atoms (cartesian axes, Ry/au):

     atom    1 type  2   force =    -0.00000000   -0.00000000    0.01065610
     atom    2 type  1   force =    -0.00000000   -0.00000000    0.00000000
     atom    3 type  2   force =     0.00000000    0.00000000   -0.01065610
     The non-local contrib.  to forces
     atom    1 type  2   force =    -0.00000000   -0.00000000   -0.08763235
     atom    2 type  1   force =     0.00000000    0.00000000   -0.00000000
     atom    3 type  2   force =     0.00000000   -0.00000000    0.08763235
     The ionic contribution  to forces
     atom    1 type  2   force =    -0.00000000    0.00000001   25.97218318
[...]
     4.6317   6.5388   7.1233   7.8121   9.7549   9.9116  11.9055  11.9055
    14.0266

     occupation numbers 
     1.0000   1.0000   1.0000   1.0000   1.0000   1.0000   1.0000   1.0000
     1.0000   1.0000   1.0000   1.0000  -0.0000  -0.0000  -0.0000  -0.0000
    -0.0000  -0.0000  -0.0000  -0.0000  -0.0000  -0.0000  -0.0000  -0.0000
    -0.0000

          k = 0.0000 0.1002 0.0000 (  3401 PWs)   bands (ev):

   -53.3790 -29.6055 -29.4056 -29.3808 -12.2348 -10.9262  -3.8357  -1.3098
    -0.9674  -0.6229  -0.0999   0.3674   2.0408   4.3250   4.4155   4.5453
     4.6091   6.8503   7.4525   7.9360  10.0466  10.2080  11.6202  12.2021
    13.1172

     occupation numbers 
     1.0000   1.0000   1.0000   1.0000   1.0000   1.0000   1.0000   1.0000
     1.0000   1.0000   1.0000   1.0000  -0.0001  -0.0000  -0.0000  -0.0000
    -0.0000  -0.0000  -0.0000  -0.0000  -0.0000  -0.0000  -0.0000  -0.0000
    -0.0000

          k = 0.0000 0.2005 0.0000 (  3381 PWs)   bands (ev):

   -53.3706 -29.5872 -29.4912 -29.3998 -11.9647 -10.8483  -3.5536  -1.8552
    -1.2550  -0.6980  -0.4776   0.4316   1.7266   4.1395   4.3573   4.3642
     5.0830   7.3331   8.2674   8.4905  10.3562  11.0182  11.1404  12.2287
    12.9961

     occupation numbers 
     1.0000   1.0000   1.0000   1.0000   1.0000   1.0000   1.0000   1.0000
     1.0000   1.0000   1.0000   1.0001  -0.0154  -0.0000  -0.0000  -0.0000
    -0.0000  -0.0000  -0.0000  -0.0000  -0.0000  -0.0000  -0.0000  -0.0000
    -0.0000

          k = 0.0000 0.3007 0.0000 (  3385 PWs)   bands (ev):

   -53.3592 -29.6063 -29.5621 -29.4255 -11.5724 -10.7357  -3.3543  -2.2939
    -1.8931  -0.8991  -0.3316   0.2365   1.2253   4.1586   4.2121   4.7203
     5.5935   7.8658   8.7127   9.4308  10.5207  10.5806  11.1900  12.6371
    13.2695

     occupation numbers 
     1.0000   1.0000   1.0000   1.0000   1.0000   1.0000   1.0000   1.0000
     1.0000   1.0000   1.0000   1.0000   0.5569  -0.0000  -0.0000  -0.0000
    -0.0000  -0.0000  -0.0000  -0.0000  -0.0000  -0.0000  -0.0000  -0.0000
    -0.0000

          k = 0.0000 0.4009 0.0000 (  3391 PWs)   bands (ev):

   -53.3477 -29.7190 -29.5369 -29.4511 -11.1444 -10.6144  -3.5908  -2.4635
    -2.3273  -1.2525   0.0117   0.0189   0.9190   4.2166   4.4039   5.1742
     5.9821   8.3942   9.0490   9.2417  10.2134  10.3257  12.1367  12.5160
    13.3814

     occupation numbers 
     1.0000   1.0000   1.0000   1.0000   1.0000   1.0000   1.0000   1.0000
     1.0000   1.0000   1.0000   1.0000   1.0353  -0.0000  -0.0000  -0.0000
    -0.0000  -0.0000  -0.0000  -0.0000  -0.0000  -0.0000  -0.0000  -0.0000
    -0.0000

          k = 0.0000 0.5012 0.0000 (  3400 PWs)   bands (ev):

   -53.3393 -29.8002 -29.5183 -29.4698 -10.7997 -10.5192  -3.9158  -2.8653
    -2.3548  -1.4815  -0.1268   0.2516   1.0111   4.3487   4.7126   5.4671
     6.2019   8.0622   9.1570   9.1962  10.3688  10.7693  11.8542  12.1319
    12.5366

     occupation numbers 
     1.0000   1.0000   1.0000   1.0000   1.0000   1.0000   1.0000   1.0000
     1.0000   1.0000   1.0000   1.0000   1.0027  -0.0000  -0.0000  -0.0000
    -0.0000  -0.0000  -0.0000  -0.0000  -0.0000  -0.0000  -0.0000  -0.0000
    -0.0000

          k =-0.0000-0.6014-0.0000 (  3392 PWs)   bands (ev):

   -53.3362 -29.8296 -29.5115 -29.4766 -10.6649 -10.4828  -4.0463  -3.0105
    -2.4031  -1.5603  -0.1703   0.3291   1.1420   4.4337   4.8811   5.5482
     6.2702   7.5961   9.3011   9.4491  10.4748  10.9107  11.9537  11.9775
    12.5885

     occupation numbers 
     1.0000   1.0000   1.0000   1.0000   1.0000   1.0000   1.0000   1.0000
     1.0000   1.0000   1.0000   1.0000   0.7928  -0.0000  -0.0000  -0.0000
    -0.0000  -0.0000  -0.0000  -0.0000  -0.0000  -0.0000  -0.0000  -0.0000
    -0.0000

          k = 0.0868 0.1504 0.0000 (  3377 PWs)   bands (ev):

   -53.3733 -29.5930 -29.4626 -29.3954 -12.0517 -10.8734  -3.6350  -1.6960
    -1.0408  -0.7929  -0.4716   0.5258   1.8419   4.1768   4.2595   4.4115
     4.9905   7.2106   8.1638   8.1802  10.2796  10.8904  11.2603  12.4029
    12.6760

     occupation numbers 
     1.0000   1.0000   1.0000   1.0000   1.0000   1.0000   1.0000   1.0000
     1.0000   1.0000   1.0000   1.0006  -0.0040  -0.0000  -0.0000  -0.0000
    -0.0000  -0.0000  -0.0000  -0.0000  -0.0000  -0.0000  -0.0000  -0.0000
    -0.0000

          k = 0.0868 0.2506 0.0000 (  3384 PWs)   bands (ev):

   -53.3634 -29.5713 -29.5589 -29.4218 -11.7196 -10.7772  -3.3607  -2.1754
    -1.5824  -0.9820  -0.5211   0.5005   1.4217   3.9952   4.3368   4.4076
     5.5348   7.7004   8.5652   9.3302  10.6371  10.8932  11.0142  12.3543
    13.0909

     occupation numbers 
     1.0000   1.0000   1.0000   1.0000   1.0000   1.0000   1.0000   1.0000
     1.0000   1.0000   1.0000   1.0004   0.0570  -0.0000  -0.0000  -0.0000
    -0.0000  -0.0000  -0.0000  -0.0000  -0.0000  -0.0000  -0.0000  -0.0000
    -0.0000

          k = 0.0868 0.3508 0.0000 (  3386 PWs)   bands (ev):

   -53.3519 -29.6678 -29.5462 -29.4525 -11.3066 -10.6579  -3.3896  -2.3259
    -2.2156  -1.3122  -0.2905   0.2704   1.0397   4.0161   4.4410   4.8206
     5.9757   8.2703   9.0142   9.7287  10.3989  10.4405  11.6897  12.6674
    12.9908

     occupation numbers 
     1.0000   1.0000   1.0000   1.0000   1.0000   1.0000   1.0000   1.0000
     1.0000   1.0000   1.0000   1.0000   0.9759  -0.0000  -0.0000  -0.0000
    -0.0000  -0.0000  -0.0000  -0.0000  -0.0000  -0.0000  -0.0000  -0.0000
    -0.0000

          k = 0.0868 0.4511 0.0000 (  3395 PWs)   bands (ev):

   -53.3420 -29.7604 -29.5242 -29.4789 -10.9144 -10.5459  -3.6999  -2.7619
    -2.2900  -1.4746  -0.1645   0.0152   1.0284   4.2367   4.6320   5.2849
     6.1538   8.5526   9.1784   9.3362  10.3753  10.6561  12.0005  12.3861
    12.4930

     occupation numbers 
     1.0000   1.0000   1.0000   1.0000   1.0000   1.0000   1.0000   1.0000
     1.0000   1.0000   1.0000   1.0000   0.9877  -0.0000  -0.0000  -0.0000
    -0.0000  -0.0000  -0.0000  -0.0000  -0.0000  -0.0000  -0.0000  -0.0000
    -0.0000

          k = 0.0868 0.5513 0.0000 (  3390 PWs)   bands (ev):

   -53.3362 -29.8132 -29.5115 -29.4941 -10.6685 -10.4769  -3.9162  -3.0708
    -2.3586  -1.5365  -0.1396  -0.0765   1.2251   4.3882   4.8777   5.6385
     6.0721   7.8552   9.6013   9.6464  10.4880  11.0487  11.5630  12.0600
    12.1493

     occupation numbers 
     1.0000   1.0000   1.0000   1.0000   1.0000   1.0000   1.0000   1.0000
     1.0000   1.0000   1.0000   1.0000   0.5576  -0.0000  -0.0000  -0.0000
    -0.0000  -0.0000  -0.0000  -0.0000  -0.0000  -0.0000  -0.0000  -0.0000
    -0.0000

          k = 0.1736 0.3007 0.0000 (  3396 PWs)   bands (ev):

   -53.3535 -29.6415 -29.5495 -29.4606 -11.3647 -10.6726  -3.2808  -2.3176
    -2.0468  -1.4872  -0.4846   0.4822   1.1106   3.8945   4.4900   4.5733
     6.0442   8.2398   9.0078  10.2104  10.4917  10.7375  11.2848  12.5867
    12.7212

     occupation numbers 
     1.0000   1.0000   1.0000   1.0000   1.0000   1.0000   1.0000   1.0000
     1.0000   1.0000   1.0000   1.0003   0.8639  -0.0000  -0.0000  -0.0000
    -0.0000  -0.0000  -0.0000  -0.0000  -0.0000  -0.0000  -0.0000  -0.0000
    -0.0000

          k = 0.1736 0.4009 0.0000 (  3388 PWs)   bands (ev):

   -53.3435 -29.7189 -29.5277 -29.5034 -10.9805 -10.5575  -3.4489  -2.6995
    -2.1987  -1.5801  -0.6893   0.2440   1.0617   4.0951   4.6549   4.9424
     6.3179   8.7837   9.4841   9.6875  10.5985  10.7693  11.7777  12.4040
    12.7322

     occupation numbers 
     1.0000   1.0000   1.0000   1.0000   1.0000   1.0000   1.0000   1.0000
     1.0000   1.0000   1.0000   1.0000   0.9483  -0.0000  -0.0000  -0.0000
    -0.0000  -0.0000  -0.0000  -0.0000  -0.0000  -0.0000  -0.0000  -0.0000
    -0.0000

          k = 0.1736 0.5012 0.0000 (  3385 PWs)   bands (ev):

   -53.3362 -29.7734 -29.5360 -29.5116 -10.6755 -10.4651  -3.6074  -3.1799
    -2.2253  -1.5145  -0.8348  -0.0515   1.2788   4.2455   4.9122   5.3408
     6.2908   8.4622   9.7558   9.9722  10.7904  10.8720  11.5815  12.4345
    12.4471

     occupation numbers 
     1.0000   1.0000   1.0000   1.0000   1.0000   1.0000   1.0000   1.0000
     1.0000   1.0000   1.0000   1.0000   0.3915  -0.0000  -0.0000  -0.0000
    -0.0000  -0.0000  -0.0000  -0.0000  -0.0000  -0.0000  -0.0000  -0.0000
    -0.0000

          k = 0.1736 0.6014 0.0000 (  3384 PWs)   bands (ev):

   -53.3336 -29.7930 -29.5481 -29.5057 -10.5577 -10.4293  -3.6582  -3.3524
    -2.3073  -1.4586  -0.8521  -0.1914   1.4488   4.1663   5.1688   5.5524
     6.1784   8.0311  10.3574  10.4632  10.5193  10.7022  11.7176  12.1770
    12.4458

     occupation numbers 
     1.0000   1.0000   1.0000   1.0000   1.0000   1.0000   1.0000   1.0000
     1.0000   1.0000   1.0000   1.0000   0.0227  -0.0000  -0.0000  -0.0000
    -0.0000  -0.0000  -0.0000  -0.0000  -0.0000  -0.0000  -0.0000  -0.0000
    -0.0000

          k = 0.2604 0.4511 0.0000 (  3386 PWs)   bands (ev):

   -53.3362 -29.7469 -29.5635 -29.5116 -10.6790 -10.4592  -3.4164  -3.2301
    -2.0747  -1.5138  -1.3011   0.0048   1.2856   4.1654   4.9356   5.1368
     6.5035   8.9394   9.5827   9.9902  10.6148  11.0455  12.1671  12.5484
    12.9703

     occupation numbers 
     1.0000   1.0000   1.0000   1.0000   1.0000   1.0000   1.0000   1.0000
     1.0000   1.0000   1.0000   1.0000   0.3712  -0.0000  -0.0000  -0.0000
    -0.0000  -0.0000  -0.0000  -0.0000  -0.0000  -0.0000  -0.0000  -0.0000
    -0.0000

          k = 0.2604 0.5513 0.0000 (  3384 PWs)   bands (ev):

   -53.3320 -29.7532 -29.6081 -29.5024 -10.4957 -10.3966  -3.5485  -3.2711
    -2.1986  -1.6379  -1.3406  -0.2689   1.6143   3.8549   5.2515   5.4027
     6.5963   8.5131   9.5517  10.4586  11.0527  11.6007  12.4010  12.5606
    12.8373

     occupation numbers 
     1.0000   1.0000   1.0000   1.0000   1.0000   1.0000   1.0000   1.0000
     1.0000   1.0000   1.0000   1.0000  -0.0331  -0.0000  -0.0000  -0.0000
    -0.0000  -0.0000  -0.0000  -0.0000  -0.0000  -0.0000  -0.0000  -0.0000
    -0.0000

          k = 0.3472 0.6014 0.0000 (  3390 PWs)   bands (ev):

   -53.3305 -29.7229 -29.6575 -29.4990 -10.4291 -10.3693  -3.6904  -2.8786
    -2.4066  -1.9926  -1.2009  -0.4236   1.8430   3.5497   5.1846   5.6644
     6.7751   8.6807   9.0684  10.6579  11.6162  12.1846  12.6525  12.6761
    12.9435

     occupation numbers 
     1.0000   1.0000   1.0000   1.0000   1.0000   1.0000   1.0000   1.0000
     1.0000   1.0000   1.0000   1.0000  -0.0039  -0.0000  -0.0000  -0.0000
    -0.0000  -0.0000  -0.0000  -0.0000  -0.0000  -0.0000  -0.0000  -0.0000
    -0.0000

     the Fermi energy is     1.2436 ev

!    total energy              =    -453.95290165 Ry

     total all-electron energy =     -9224.157413 Ry
     estimated scf accuracy    <          2.2E-12 Ry
     smearing contrib. (-TS)   =      -0.00105256 Ry
     internal energy E=F+TS    =    -453.95184908 Ry

     The total energy is F=E-TS. E is the sum of the following terms:
     one-electron contribution =    -441.87393445 Ry
     hartree contribution      =     225.90838002 Ry
     xc contribution           =     -32.69015637 Ry
     ewald contribution        =      88.83540834 Ry
     one-center paw contrib.   =    -294.13154663 Ry
      -> PAW hartree energy AE =      85.70528578 Ry
      -> PAW hartree energy PS =     -85.22244062 Ry
      -> PAW xc energy AE      =    -276.36432154 Ry
      -> PAW xc energy PS      =      23.44783321 Ry
      -> total E_H with PAW    =     226.39122519 Ry
      -> total E_XC with PAW   =    -285.60664470 Ry

     convergence has been achieved in  10 iterations

     negative rho (up, down):  8.849E-05 0.000E+00

     Forces acting on atoms (cartesian axes, Ry/au):

     atom    1 type  2   force =    -0.00000000   -0.00000000    0.00014327
     atom    2 type  1   force =     0.00000000    0.00000000    0.00000000
     atom    3 type  2   force =     0.00000000    0.00000000   -0.00014327
     The non-local contrib.  to forces
     atom    1 type  2   force =    -0.00000000    0.00000000   -0.08577889
     atom    2 type  1   force =     0.00000000    0.00000000    0.00000000
     atom    3 type  2   force =    -0.00000000   -0.00000000    0.08577889
     The ionic contribution  to forces
     atom    1 type  2   force =    -0.00000000    0.00000000   26.68293278
     atom    2 type  1   force =     0.00000000   -0.00000001   -0.00000000
     atom    3 type  2   force =    -0.00000000    0.00000000  -26.68293278
     The local contribution  to forces
     atom    1 type  2   force =     0.00000000    0.00000001  -26.59364199
     atom    2 type  1   force =    -0.00000000   -0.00000009    0.00000001
     atom    3 type  2   force =    -0.00000000    0.00000001   26.59364198
     The core correction contribution to forces
     atom    1 type  2   force =     0.00000000   -0.00000000   -0.00336885
     atom    2 type  1   force =     0.00000000    0.00000000   -0.00000000
     atom    3 type  2   force =     0.00000000   -0.00000000    0.00336885
     The Hubbard contrib.    to forces
     atom    1 type  2   force =     0.00000000    0.00000000    0.00000000
     atom    2 type  1   force =     0.00000000    0.00000000    0.00000000
     atom    3 type  2   force =     0.00000000    0.00000000    0.00000000
     The SCF correction term to forces
     atom    1 type  2   force =    -0.00000000    0.00000000    0.00000021
     atom    2 type  1   force =    -0.00000000   -0.00000000    0.00000000
     atom    3 type  2   force =    -0.00000000    0.00000000   -0.00000021

     Total force =     0.000203     Total SCF correction =     0.000000


     Computing stress (Cartesian axis) and pressure


     negative rho (up, down):  8.849E-05 0.000E+00
          total   stress  (Ry/bohr**3)                   (kbar)     P=       -0.34
  -0.00000145  -0.00000000   0.00000000           -0.21       -0.00        0.00
  -0.00000000  -0.00000145   0.00000000           -0.00       -0.21        0.00
   0.00000000   0.00000000  -0.00000406            0.00        0.00       -0.60

     kinetic stress (kbar)   7465.70     -0.00     -0.00
                               -0.00   7465.70      0.00
                               -0.00      0.00   7534.52

     local   stress (kbar) -82517.38     -0.00      0.00
                               -0.00 -82517.38     -0.00
                                0.00     -0.00  77212.11

     nonloc. stress (kbar)   3955.89      0.00      0.00
                                0.00   3955.89     -0.00
                                0.00     -0.00   3966.67

     hartree stress (kbar)  39340.84     -0.00     -0.00
                               -0.00  39340.84      0.00
                               -0.00      0.00 -36794.70

     exc-cor stress (kbar)    300.33      0.00      0.00
                                0.00    300.33      0.00
                                0.00      0.00    300.33

     corecor stress (kbar)  -1926.73     -0.00     -0.00
                               -0.00  -1926.73     -0.00
                               -0.00     -0.00  -1928.72

     ewald   stress (kbar)  33381.14      0.00      0.00
                                0.00  33381.14     -0.00
                                0.00     -0.00 -50290.80

     hubbard stress (kbar)      0.00      0.00      0.00
                                0.00      0.00      0.00
                                0.00      0.00      0.00

     DFT-D   stress (kbar)      0.00      0.00      0.00
                                0.00      0.00      0.00
                                0.00      0.00      0.00

     XDM     stress (kbar)      0.00      0.00      0.00
                                0.00      0.00      0.00
                                0.00      0.00      0.00

     dft-nl  stress (kbar)      0.00      0.00      0.00
                                0.00      0.00      0.00
                                0.00      0.00      0.00

     TS-vdW  stress (kbar)      0.00      0.00      0.00
                                0.00      0.00      0.00
                                0.00      0.00      0.00



     Writing output data file ./tmp/NbS2.save/

     init_run     :     12.63s CPU     12.93s WALL (       2 calls)
     electrons    :   1695.51s CPU   1801.30s WALL (      38 calls)
     update_pot   :    244.93s CPU    246.53s WALL (      36 calls)
     forces       :    176.96s CPU    182.25s WALL (      38 calls)
     stress       :    352.77s CPU    363.55s WALL (      38 calls)

     Called by init_run:
     wfcinit      :      1.53s CPU      1.55s WALL (       2 calls)
     wfcinit:atom :      0.02s CPU      0.02s WALL (      38 calls)
     wfcinit:wfcr :      1.45s CPU      1.48s WALL (      38 calls)
     potinit      :      3.32s CPU      3.33s WALL (       2 calls)
     hinit0       :      7.33s CPU      7.43s WALL (       2 calls)

     Called by electrons:
     c_bands      :   1175.81s CPU   1194.21s WALL (     503 calls)
     sum_band     :    356.51s CPU    405.80s WALL (     503 calls)
     v_of_rho     :     12.42s CPU     13.14s WALL (     531 calls)
     v_h          :      6.44s CPU      6.61s WALL (     531 calls)
     v_xc         :      7.09s CPU      7.68s WALL (     607 calls)
     newd         :    111.24s CPU    150.08s WALL (     531 calls)
     PAW_pot      :     30.15s CPU     30.28s WALL (     567 calls)
     mix_rho      :     12.66s CPU     12.99s WALL (     503 calls)

     Called by c_bands:
     init_us_2    :     15.95s CPU     16.13s WALL (   21280 calls)
     cegterg      :   1146.57s CPU   1164.61s WALL (    9557 calls)

     Called by sum_band:
     sum_band:wei :      0.37s CPU      0.38s WALL (     503 calls)
     sum_band:loo :    201.29s CPU    205.24s WALL (     503 calls)
     sum_band:buf :      2.73s CPU      2.77s WALL (    9557 calls)
     sum_band:ini :      6.76s CPU      6.81s WALL (    9557 calls)
     sum_band:cal :     31.49s CPU     32.01s WALL (   10241 calls)
     sum_band:bec :      0.30s CPU      0.31s WALL (   10241 calls)
     addusdens    :    145.06s CPU    189.55s WALL (     503 calls)
     addusd:skk   :      0.52s CPU      0.62s WALL (    1006 calls)
     addusd:dgemm :     38.28s CPU     74.14s WALL (    1006 calls)
     addusd:qvan2 :     93.81s CPU     94.21s WALL (    1006 calls)

     Called by *egterg:
     cdiaghg      :     24.70s CPU     24.88s WALL (   31156 calls)
     cegterg:over :     94.14s CPU     94.96s WALL (   22473 calls)
     cegterg:upda :     43.36s CPU     43.57s WALL (   22473 calls)
     cegterg:last :     99.78s CPU    100.30s WALL (   16646 calls)
     h_psi        :    782.97s CPU    798.51s WALL (   32068 calls)
     s_psi        :     48.03s CPU     48.47s WALL (   32068 calls)
     g_psi        :      2.58s CPU      2.59s WALL (   22473 calls)

     Called by h_psi:
     h_psi:calbec :     69.29s CPU     70.54s WALL (   32068 calls)
     vloc_psi     :    660.70s CPU    674.65s WALL (   32068 calls)
     add_vuspsi   :     47.80s CPU     48.15s WALL (   32068 calls)

     General routines
     calbec       :    113.81s CPU    115.75s WALL (   45919 calls)
     fft          :     33.20s CPU     34.32s WALL (    3460 calls)
     ffts         :      1.14s CPU      1.15s WALL (    1034 calls)
     fftw         :    761.31s CPU    777.48s WALL ( 1352257 calls)
     interpolate  :      6.44s CPU      6.64s WALL (     531 calls)

     Parallel routines
     fft_scatt_xy :     83.27s CPU     84.95s WALL ( 1356751 calls)
     fft_scatt_yz :     84.74s CPU     87.07s WALL ( 1356751 calls)

     PAW routines
     PAW_pot      :     30.15s CPU     30.28s WALL (     567 calls)
     PAW_symme    :      0.20s CPU      0.20s WALL (    1070 calls)

     PWSCF        :  41m36.94s CPU  43m44.40s WALL


   This run was terminated on:  16:35:34  11Jun2021            

=------------------------------------------------------------------------------=
   JOB DONE.
=------------------------------------------------------------------------------=
