
     Program PWSCF v.6.6 starts on 10Jun2021 at 15:11:53 

     This program is part of the open-source Quantum ESPRESSO suite
     for quantum simulation of materials; please cite
         "P. Giannozzi et al., J. Phys.:Condens. Matter 21 395502 (2009);
         "P. Giannozzi et al., J. Phys.:Condens. Matter 29 465901 (2017);
          URL http://www.quantum-espresso.org", 
     in publications or presentations arising from this work. More details at
     http://www.quantum-espresso.org/quote

     Parallel version (MPI), running on     2 processors

     MPI processes distributed on     1 nodes
     R & G space division:  proc/nbgrp/npool/nimage =       2
     Fft bands division:     nmany     =       1
     Waiting for input...
     Reading input from standard input

     Current dimensions of program PWSCF are:
     Max number of different atomic species (ntypx) = 10
     Max number of k-points (npk) =  40000
     Max angular momentum in pseudopotentials (lmaxx) =  3
     file Nb.pz-spn-kjpaw_psl.1.0.0.UPF: wavefunction(s)  4S 4P 4D renormalized
     file S.pz-n-kjpaw_psl.0.1.UPF: wavefunction(s)  3P renormalized

     Subspace diagonalization in iterative solution of the eigenvalue problem:
     a serial algorithm will be used


     Parallelization info
     --------------------
     sticks:   dense  smooth     PW     G-vecs:    dense   smooth      PW
     Min         579      81     27               184729    10579    1995
     Max         580      82     28               184746    10614    2030
     Sum        1159     163     55               369475    21193    4025



     bravais-lattice index     =            4
     lattice parameter (alat)  =       6.4591  a.u.
     unit-cell volume          =    2731.0606 (a.u.)^3
     number of atoms/cell      =            3
     number of atomic types    =            2
     number of electrons       =        25.00
     number of Kohn-Sham states=           25
     kinetic-energy cutoff     =      15.0000  Ry
     charge density cutoff     =     400.0000  Ry
     convergence threshold     =      1.0E-08
     mixing beta               =       0.7000
     number of iterations used =            8  plain     mixing
     Exchange-correlation= SLA PZ NOGX NOGC
                           (   1   1   0   0   0   0   0)

     celldm(1)=   6.459084  celldm(2)=   0.000000  celldm(3)=  11.702750
     celldm(4)=   0.000000  celldm(5)=   0.000000  celldm(6)=   0.000000

     crystal axes: (cart. coord. in units of alat)
               a(1) = (   1.000000   0.000000   0.000000 )  
               a(2) = (  -0.500000   0.866025   0.000000 )  
               a(3) = (   0.000000   0.000000  11.702750 )  

     reciprocal axes: (cart. coord. in units 2 pi/alat)
               b(1) = (  1.000000  0.577350 -0.000000 )  
               b(2) = (  0.000000  1.154701  0.000000 )  
               b(3) = (  0.000000 -0.000000  0.085450 )  


     PseudoPot. # 1 for Nb read from file:
     ../Nb.pz-spn-kjpaw_psl.1.0.0.UPF
     MD5 check sum: 38c2e04b3cc915696ca8dc9f46a23270
     Pseudo is Projector augmented-wave + core cor, Zval = 13.0
     Generated using "atomic" code by A. Dal Corso v.6.2.2
     Shape of augmentation charge: PSQ
     Using radial grid of 1227 points,  6 beta functions with: 
                l(1) =   0
                l(2) =   0
                l(3) =   1
                l(4) =   1
                l(5) =   2
                l(6) =   2
     Q(r) pseudized with 0 coefficients 


     PseudoPot. # 2 for S  read from file:
     ../S.pz-n-kjpaw_psl.0.1.UPF
     MD5 check sum: c0b1682311cf098e03f7841691d9a679
     Pseudo is Projector augmented-wave + core cor, Zval =  6.0
     Generated using "atomic" code by A. Dal Corso v.5.0.2 svn rev. 9415
     Shape of augmentation charge: PSQ
     Using radial grid of 1151 points,  4 beta functions with: 
                l(1) =   0
                l(2) =   0
                l(3) =   1
                l(4) =   1
     Q(r) pseudized with 0 coefficients 


     atomic species   valence    mass     pseudopotential
        Nb            13.00    92.90600     Nb( 1.00)
        S              6.00    32.06500     S ( 1.00)

     12 Sym. Ops. (no inversion) found ( 6 have fractional translation)


                                    s                        frac. trans.

      isym =  1     identity                                     

 cryst.   s( 1) = (     1          0          0      )
                  (     0          1          0      )
                  (     0          0          1      )

 cart.    s( 1) = (  1.0000000  0.0000000  0.0000000 )
                  (  0.0000000  1.0000000  0.0000000 )
                  (  0.0000000  0.0000000  1.0000000 )


      isym =  2     180 deg rotation - cart. axis [0,1,0]        

 cryst.   s( 2) = (    -1          0          0      )    f =(  0.0000000 )
                  (     1          1          0      )       (  0.0000000 )
                  (     0          0         -1      )       (  0.5000000 )

 cart.    s( 2) = ( -1.0000000  0.0000000  0.0000000 )    f =(  0.0000000 )
                  (  0.0000000  1.0000000  0.0000000 )       (  0.0000000 )
                  (  0.0000000  0.0000000 -1.0000000 )       (  5.8513751 )


      isym =  3     120 deg rotation - cryst. axis [0,0,1]       

 cryst.   s( 3) = (     0          1          0      )
                  (    -1         -1          0      )
                  (     0          0          1      )

 cart.    s( 3) = ( -0.5000000 -0.8660254  0.0000000 )
                  (  0.8660254 -0.5000000  0.0000000 )
                  (  0.0000000  0.0000000  1.0000000 )


      isym =  4     120 deg rotation - cryst. axis [0,0,-1]      

 cryst.   s( 4) = (    -1         -1          0      )
                  (     1          0          0      )
                  (     0          0          1      )

 cart.    s( 4) = ( -0.5000000  0.8660254  0.0000000 )
                  ( -0.8660254 -0.5000000  0.0000000 )
                  (  0.0000000  0.0000000  1.0000000 )


      isym =  5     180 deg rotation - cryst. axis [1,-1,0]      

 cryst.   s( 5) = (     0         -1          0      )    f =(  0.0000000 )
                  (    -1          0          0      )       (  0.0000000 )
                  (     0          0         -1      )       (  0.5000000 )

 cart.    s( 5) = (  0.5000000 -0.8660254  0.0000000 )    f =(  0.0000000 )
                  ( -0.8660254 -0.5000000  0.0000000 )       (  0.0000000 )
                  (  0.0000000  0.0000000 -1.0000000 )       (  5.8513751 )


      isym =  6     180 deg rotation - cryst. axis [2,1,0]       

 cryst.   s( 6) = (     1          1          0      )    f =(  0.0000000 )
                  (     0         -1          0      )       (  0.0000000 )
                  (     0          0         -1      )       (  0.5000000 )

 cart.    s( 6) = (  0.5000000  0.8660254  0.0000000 )    f =( -0.0000000 )
                  (  0.8660254 -0.5000000  0.0000000 )       (  0.0000000 )
                  (  0.0000000  0.0000000 -1.0000000 )       (  5.8513751 )


      isym =  7     inv. 180 deg rotation - cart. axis [0,0,1]   

 cryst.   s( 7) = (     1          0          0      )    f =(  0.0000000 )
                  (     0          1          0      )       (  0.0000000 )
                  (     0          0         -1      )       (  0.5000000 )

 cart.    s( 7) = (  1.0000000  0.0000000  0.0000000 )    f =(  0.0000000 )
                  (  0.0000000  1.0000000  0.0000000 )       (  0.0000000 )
                  (  0.0000000  0.0000000 -1.0000000 )       (  5.8513751 )


      isym =  8     inv. 180 deg rotation - cart. axis [1,0,0]   

 cryst.   s( 8) = (    -1          0          0      )
                  (     1          1          0      )
                  (     0          0          1      )

 cart.    s( 8) = ( -1.0000000  0.0000000  0.0000000 )
                  (  0.0000000  1.0000000  0.0000000 )
                  (  0.0000000  0.0000000  1.0000000 )


      isym =  9     inv.  60 deg rotation - cryst. axis [0,0,1]  

 cryst.   s( 9) = (    -1         -1          0      )    f =(  0.0000000 )
                  (     1          0          0      )       (  0.0000000 )
                  (     0          0         -1      )       (  0.5000000 )

 cart.    s( 9) = ( -0.5000000  0.8660254  0.0000000 )    f =( -0.0000000 )
                  ( -0.8660254 -0.5000000  0.0000000 )       (  0.0000000 )
                  (  0.0000000  0.0000000 -1.0000000 )       (  5.8513751 )


      isym = 10     inv.  60 deg rotation - cryst. axis [0,0,-1] 

 cryst.   s(10) = (     0          1          0      )    f =(  0.0000000 )
                  (    -1         -1          0      )       (  0.0000000 )
                  (     0          0         -1      )       (  0.5000000 )

 cart.    s(10) = ( -0.5000000 -0.8660254  0.0000000 )    f =(  0.0000000 )
                  (  0.8660254 -0.5000000  0.0000000 )       (  0.0000000 )
                  (  0.0000000  0.0000000 -1.0000000 )       (  5.8513751 )


      isym = 11     inv. 180 deg rotation - cryst. axis [0,1,0]  

 cryst.   s(11) = (     1          1          0      )
                  (     0         -1          0      )
                  (     0          0          1      )

 cart.    s(11) = (  0.5000000  0.8660254  0.0000000 )
                  (  0.8660254 -0.5000000  0.0000000 )
                  (  0.0000000  0.0000000  1.0000000 )


      isym = 12     inv. 180 deg rotation - cryst. axis [1,1,0]  

 cryst.   s(12) = (     0         -1          0      )
                  (    -1          0          0      )
                  (     0          0          1      )

 cart.    s(12) = (  0.5000000 -0.8660254  0.0000000 )
                  ( -0.8660254 -0.5000000  0.0000000 )
                  (  0.0000000  0.0000000  1.0000000 )


     point group D_3h (-62m)
     there are  6 classes
     the character table:

       E     2C3   3C2   s_h   2S3   3s_v 
A'_1   1.00  1.00  1.00  1.00  1.00  1.00
A'_2   1.00  1.00 -1.00  1.00  1.00 -1.00
E'     2.00 -1.00  0.00  2.00 -1.00  0.00
A''1   1.00  1.00  1.00 -1.00 -1.00 -1.00
A''2   1.00  1.00 -1.00 -1.00 -1.00  1.00
E''    2.00 -1.00  0.00 -2.00  1.00  0.00

     the symmetry operations in each class and the name of the first element:

     E        1
          identity                                               
     2C3      3    4
          120 deg rotation - cryst. axis [0,0,1]                 
     3C2      2    6    5
          180 deg rotation - cart. axis [0,1,0]                  
     s_h      7
          inv. 180 deg rotation - cart. axis [0,0,1]             
     2S3      9   10
          inv.  60 deg rotation - cryst. axis [0,0,1]            
     3s_v     8   11   12
          inv. 180 deg rotation - cart. axis [1,0,0]             

   Cartesian axes

     site n.     atom                  positions (alat units)
         1           S   tau(   1) = (   0.0000000   0.5773503   4.3089526  )
         2           Nb  tau(   2) = (   0.0000000   0.0000000   2.9256875  )
         3           S   tau(   3) = (   0.0000000   0.5773503   1.5424225  )

   Crystallographic axes

     site n.     atom                  positions (cryst. coord.)
         1           S   tau(   1) = (  0.3333333  0.6666667  0.3682000  )
         2           Nb  tau(   2) = (  0.0000000  0.0000000  0.2500000  )
         3           S   tau(   3) = (  0.3333333  0.6666667  0.1318000  )

     number of k points=     4  Methfessel-Paxton smearing, width (Ry)=  0.0200
                       cart. coord. in units 2pi/alat
        k(    1) = (   0.0000000   0.0000000   0.0000000), wk =   0.1250000
        k(    2) = (   0.0000000   0.2886751   0.0000000), wk =   0.7500000
        k(    3) = (   0.0000000  -0.5773503   0.0000000), wk =   0.3750000
        k(    4) = (   0.2500000   0.4330127   0.0000000), wk =   0.7500000

                       cryst. coord.
        k(    1) = (   0.0000000   0.0000000   0.0000000), wk =   0.1250000
        k(    2) = (   0.0000000   0.2500000   0.0000000), wk =   0.7500000
        k(    3) = (   0.0000000  -0.5000000   0.0000000), wk =   0.3750000
        k(    4) = (   0.2500000   0.2500000   0.0000000), wk =   0.7500000

     Dense  grid:   369475 G-vectors     FFT dimensions: (  45,  45, 486)

     Smooth grid:    21193 G-vectors     FFT dimensions: (  15,  15, 192)

     Dynamical RAM for                 wfc:       0.51 MB

     Dynamical RAM for     wfc (w. buffer):       2.55 MB

     Dynamical RAM for           str. fact:       5.64 MB

     Dynamical RAM for           local pot:       0.00 MB

     Dynamical RAM for          nlocal pot:       0.69 MB

     Dynamical RAM for                qrad:       3.21 MB

     Dynamical RAM for          rho,v,vnew:      19.72 MB

     Dynamical RAM for               rhoin:       6.57 MB

     Dynamical RAM for            rho*nmix:      45.10 MB

     Dynamical RAM for           G-vectors:      10.65 MB

     Dynamical RAM for          h,s,v(r/c):       0.11 MB

     Dynamical RAM for          <psi|beta>:       0.01 MB

     Dynamical RAM for                 psi:       1.02 MB

     Dynamical RAM for                hpsi:       1.02 MB

     Dynamical RAM for                spsi:       1.02 MB

     Dynamical RAM for      wfcinit/wfcrot:       1.04 MB

     Dynamical RAM for           addusdens:     529.97 MB

     Estimated static dynamical RAM per process >     121.37 MB

     Estimated max dynamical RAM per process >     651.35 MB

     Estimated total dynamical RAM >       1.27 GB

     Initial potential from superposition of free atoms

     starting charge   24.99887, renormalised to   25.00000

     negative rho (up, down):  3.555E-04 0.000E+00
     Starting wfcs are   21 randomized atomic wfcs +    4 random wfcs
     Checking if some PAW data can be deallocated... 
       PAW data deallocated on    1 nodes for type:  1

     total cpu time spent up to now is        4.2 secs

     Self-consistent Calculation

     iteration #  1     ecut=    15.00 Ry     beta= 0.70
     Davidson diagonalization with overlap
     ethr =  1.00E-02,  avg # of iterations =  9.0

     negative rho (up, down):  1.615E-04 0.000E+00

     total cpu time spent up to now is        7.9 secs

     total energy              =    -443.78412771 Ry
     estimated scf accuracy    <       9.13933147 Ry

     iteration #  2     ecut=    15.00 Ry     beta= 0.70
     Davidson diagonalization with overlap
     ethr =  1.00E-02,  avg # of iterations =  7.5

     negative rho (up, down):  2.214E-01 0.000E+00

     total cpu time spent up to now is       11.8 secs

     total energy              =    -449.95274759 Ry
     estimated scf accuracy    <     244.54506037 Ry

     iteration #  3     ecut=    15.00 Ry     beta= 0.70
     Davidson diagonalization with overlap
     ethr =  1.00E-02,  avg # of iterations =  8.2

     negative rho (up, down):  2.449E-01 0.000E+00

     total cpu time spent up to now is       15.7 secs

     total energy              =    -448.68197261 Ry
     estimated scf accuracy    <      79.53705340 Ry

     iteration #  4     ecut=    15.00 Ry     beta= 0.70
     Davidson diagonalization with overlap
     ethr =  1.00E-02,  avg # of iterations =  4.5

     negative rho (up, down):  2.639E-03 0.000E+00

     total cpu time spent up to now is       19.3 secs

     total energy              =    -450.75287189 Ry
     estimated scf accuracy    <      15.28522762 Ry

     iteration #  5     ecut=    15.00 Ry     beta= 0.70
     Davidson diagonalization with overlap
     ethr =  1.00E-02,  avg # of iterations =  1.0

     negative rho (up, down):  9.148E-02 0.000E+00

     total cpu time spent up to now is       22.8 secs

     total energy              =    -451.77329632 Ry
     estimated scf accuracy    <      15.20828376 Ry

     iteration #  6     ecut=    15.00 Ry     beta= 0.70
     Davidson diagonalization with overlap
     ethr =  1.00E-02,  avg # of iterations =  1.0

     negative rho (up, down):  1.163E-01 0.000E+00

     total cpu time spent up to now is       26.3 secs

     total energy              =    -450.33091632 Ry
     estimated scf accuracy    <      22.32550981 Ry

     iteration #  7     ecut=    15.00 Ry     beta= 0.70
     Davidson diagonalization with overlap
     ethr =  1.00E-02,  avg # of iterations =  1.8

     negative rho (up, down):  3.570E-02 0.000E+00

     total cpu time spent up to now is       29.8 secs

     total energy              =    -451.07451181 Ry
     estimated scf accuracy    <      16.44966217 Ry

     iteration #  8     ecut=    15.00 Ry     beta= 0.70
     Davidson diagonalization with overlap
     ethr =  1.00E-02,  avg # of iterations =  1.0

     negative rho (up, down):  4.699E-02 0.000E+00

     total cpu time spent up to now is       33.3 secs

     total energy              =    -451.49575540 Ry
     estimated scf accuracy    <       0.30117961 Ry

     iteration #  9     ecut=    15.00 Ry     beta= 0.70
     Davidson diagonalization with overlap
     ethr =  1.20E-03,  avg # of iterations =  2.8

     negative rho (up, down):  6.821E-02 0.000E+00

     total cpu time spent up to now is       36.8 secs

     total energy              =    -451.50651593 Ry
     estimated scf accuracy    <       0.65262228 Ry

     iteration # 10     ecut=    15.00 Ry     beta= 0.70
     Davidson diagonalization with overlap
     ethr =  1.20E-03,  avg # of iterations =  1.0

     negative rho (up, down):  8.922E-02 0.000E+00

     total cpu time spent up to now is       40.3 secs

     total energy              =    -451.52875459 Ry
     estimated scf accuracy    <       0.25469703 Ry

     iteration # 11     ecut=    15.00 Ry     beta= 0.70
     Davidson diagonalization with overlap
     ethr =  1.02E-03,  avg # of iterations =  1.0

     negative rho (up, down):  9.868E-02 0.000E+00

     total cpu time spent up to now is       43.7 secs

     total energy              =    -451.55727299 Ry
     estimated scf accuracy    <       1.26195075 Ry

     iteration # 12     ecut=    15.00 Ry     beta= 0.70
     Davidson diagonalization with overlap
     ethr =  1.02E-03,  avg # of iterations =  1.0

     negative rho (up, down):  8.291E-02 0.000E+00

     total cpu time spent up to now is       47.2 secs

     total energy              =    -451.51452670 Ry
     estimated scf accuracy    <       1.29635629 Ry

     iteration # 13     ecut=    15.00 Ry     beta= 0.70
     Davidson diagonalization with overlap
     ethr =  1.02E-03,  avg # of iterations =  1.0

     negative rho (up, down):  9.040E-02 0.000E+00

     total cpu time spent up to now is       50.7 secs

     total energy              =    -451.57945388 Ry
     estimated scf accuracy    <       1.01627285 Ry

     iteration # 14     ecut=    15.00 Ry     beta= 0.70
     Davidson diagonalization with overlap
     ethr =  1.02E-03,  avg # of iterations =  1.0

     negative rho (up, down):  8.973E-02 0.000E+00

     total cpu time spent up to now is       54.2 secs

     total energy              =    -451.55886324 Ry
     estimated scf accuracy    <       1.80834671 Ry

     iteration # 15     ecut=    15.00 Ry     beta= 0.70
     Davidson diagonalization with overlap
     ethr =  1.02E-03,  avg # of iterations =  1.0

     negative rho (up, down):  4.080E-02 0.000E+00

     total cpu time spent up to now is       57.6 secs

     total energy              =    -451.37961536 Ry
     estimated scf accuracy    <       1.36521517 Ry

     iteration # 16     ecut=    15.00 Ry     beta= 0.70
     Davidson diagonalization with overlap
     ethr =  1.02E-03,  avg # of iterations =  2.0

     negative rho (up, down):  6.548E-02 0.000E+00

     total cpu time spent up to now is       61.2 secs

     total energy              =    -451.53160402 Ry
     estimated scf accuracy    <       6.38632568 Ry

     iteration # 17     ecut=    15.00 Ry     beta= 0.70
     Davidson diagonalization with overlap
     ethr =  1.02E-03,  avg # of iterations =  1.0

     negative rho (up, down):  6.406E-02 0.000E+00

     total cpu time spent up to now is       64.7 secs

     total energy              =    -451.55576563 Ry
     estimated scf accuracy    <       2.51167355 Ry

     iteration # 18     ecut=    15.00 Ry     beta= 0.70
     Davidson diagonalization with overlap
     ethr =  1.02E-03,  avg # of iterations =  1.0

     negative rho (up, down):  6.927E-02 0.000E+00

     total cpu time spent up to now is       68.2 secs

     total energy              =    -451.50243424 Ry
     estimated scf accuracy    <       3.16640892 Ry

     iteration # 19     ecut=    15.00 Ry     beta= 0.70
     Davidson diagonalization with overlap
     ethr =  1.02E-03,  avg # of iterations =  1.0

     negative rho (up, down):  5.017E-02 0.000E+00

     total cpu time spent up to now is       71.6 secs

     total energy              =    -451.53205182 Ry
     estimated scf accuracy    <       1.33737733 Ry

     iteration # 20     ecut=    15.00 Ry     beta= 0.70
     Davidson diagonalization with overlap
     ethr =  1.02E-03,  avg # of iterations =  1.0

     negative rho (up, down):  7.451E-02 0.000E+00

     total cpu time spent up to now is       75.1 secs

     total energy              =    -451.54062135 Ry
     estimated scf accuracy    <       2.36968024 Ry

     iteration # 21     ecut=    15.00 Ry     beta= 0.70
     Davidson diagonalization with overlap
     ethr =  1.02E-03,  avg # of iterations =  1.0

     negative rho (up, down):  7.817E-02 0.000E+00

     total cpu time spent up to now is       78.6 secs

     total energy              =    -451.42052230 Ry
     estimated scf accuracy    <       3.32492397 Ry

     iteration # 22     ecut=    15.00 Ry     beta= 0.70
     Davidson diagonalization with overlap
     ethr =  1.02E-03,  avg # of iterations =  1.0

     negative rho (up, down):  1.241E-02 0.000E+00

     total cpu time spent up to now is       82.1 secs

     total energy              =    -451.49314102 Ry
     estimated scf accuracy    <       0.15449890 Ry

     iteration # 23     ecut=    15.00 Ry     beta= 0.70
     Davidson diagonalization with overlap
     ethr =  6.18E-04,  avg # of iterations =  1.0

     negative rho (up, down):  1.194E-02 0.000E+00

     total cpu time spent up to now is       85.6 secs

     total energy              =    -451.48300364 Ry
     estimated scf accuracy    <       0.76925843 Ry

     iteration # 24     ecut=    15.00 Ry     beta= 0.70
     Davidson diagonalization with overlap
     ethr =  6.18E-04,  avg # of iterations =  1.0

     negative rho (up, down):  9.301E-03 0.000E+00

     total cpu time spent up to now is       89.1 secs

     total energy              =    -451.48647098 Ry
     estimated scf accuracy    <       0.14097476 Ry

     iteration # 25     ecut=    15.00 Ry     beta= 0.70
     Davidson diagonalization with overlap
     ethr =  5.64E-04,  avg # of iterations =  1.0

     negative rho (up, down):  1.002E-02 0.000E+00

     total cpu time spent up to now is       92.6 secs

     total energy              =    -451.48607467 Ry
     estimated scf accuracy    <       0.11643358 Ry

     iteration # 26     ecut=    15.00 Ry     beta= 0.70
     Davidson diagonalization with overlap
     ethr =  4.66E-04,  avg # of iterations =  1.0

     negative rho (up, down):  9.997E-03 0.000E+00

     total cpu time spent up to now is       96.2 secs

     total energy              =    -451.48675206 Ry
     estimated scf accuracy    <       0.05341812 Ry

     iteration # 27     ecut=    15.00 Ry     beta= 0.70
     Davidson diagonalization with overlap
     ethr =  2.14E-04,  avg # of iterations =  1.0

     negative rho (up, down):  1.114E-02 0.000E+00

     total cpu time spent up to now is       99.7 secs

     total energy              =    -451.48683166 Ry
     estimated scf accuracy    <       0.08646664 Ry

     iteration # 28     ecut=    15.00 Ry     beta= 0.70
     Davidson diagonalization with overlap
     ethr =  2.14E-04,  avg # of iterations =  1.0

     negative rho (up, down):  1.109E-02 0.000E+00

     total cpu time spent up to now is      103.1 secs

     total energy              =    -451.48663339 Ry
     estimated scf accuracy    <       0.06732461 Ry

     iteration # 29     ecut=    15.00 Ry     beta= 0.70
     Davidson diagonalization with overlap
     ethr =  2.14E-04,  avg # of iterations =  1.0

     negative rho (up, down):  5.480E-03 0.000E+00

     total cpu time spent up to now is      106.6 secs

     total energy              =    -451.48417043 Ry
     estimated scf accuracy    <       0.06035443 Ry

     iteration # 30     ecut=    15.00 Ry     beta= 0.70
     Davidson diagonalization with overlap
     ethr =  2.14E-04,  avg # of iterations =  1.0

     negative rho (up, down):  1.883E-03 0.000E+00

     total cpu time spent up to now is      110.1 secs

     total energy              =    -451.48469785 Ry
     estimated scf accuracy    <       0.00587947 Ry

     iteration # 31     ecut=    15.00 Ry     beta= 0.70
     Davidson diagonalization with overlap
     ethr =  2.35E-05,  avg # of iterations =  5.0

     negative rho (up, down):  7.883E-04 0.000E+00

     total cpu time spent up to now is      113.8 secs

     total energy              =    -451.48479406 Ry
     estimated scf accuracy    <       0.00098621 Ry

     iteration # 32     ecut=    15.00 Ry     beta= 0.70
     Davidson diagonalization with overlap
     ethr =  3.94E-06,  avg # of iterations =  5.0

     negative rho (up, down):  8.781E-05 0.000E+00

     total cpu time spent up to now is      117.3 secs

     total energy              =    -451.48481497 Ry
     estimated scf accuracy    <       0.00047352 Ry

     iteration # 33     ecut=    15.00 Ry     beta= 0.70
     Davidson diagonalization with overlap
     ethr =  1.89E-06,  avg # of iterations =  3.8

     negative rho (up, down):  7.482E-05 0.000E+00

     total cpu time spent up to now is      120.8 secs

     total energy              =    -451.48482120 Ry
     estimated scf accuracy    <       0.00000258 Ry

     iteration # 34     ecut=    15.00 Ry     beta= 0.70
     Davidson diagonalization with overlap
     ethr =  1.03E-08,  avg # of iterations =  1.0

     negative rho (up, down):  7.469E-05 0.000E+00

     total cpu time spent up to now is      124.3 secs

     total energy              =    -451.48482128 Ry
     estimated scf accuracy    <       0.00000003 Ry

     iteration # 35     ecut=    15.00 Ry     beta= 0.70
     Davidson diagonalization with overlap
     ethr =  1.01E-10,  avg # of iterations =  2.2

     negative rho (up, down):  7.467E-05 0.000E+00

     total cpu time spent up to now is      127.7 secs

     End of self-consistent calculation

          k = 0.0000 0.0000 0.0000 (  2541 PWs)   bands (ev):

   -64.6167 -38.4935 -37.4998 -37.4998 -15.9277 -15.9277  -8.4334  -5.8678
    -5.8616  -4.7294  -3.8917  -3.8917  -3.1881  -3.1520  -3.1520  -3.1514
    -3.1514  -3.0191  -3.0191   1.4726   1.8351   2.3311   2.5587   2.5713
     3.1012

     occupation numbers 
     1.0000   1.0000   1.0000   1.0000   1.0000   1.0000   1.0000   1.0000
     1.0000   0.5915  -0.0001  -0.0001  -0.0000  -0.0000  -0.0000  -0.0000
    -0.0000  -0.0000  -0.0000  -0.0000  -0.0000  -0.0000  -0.0000  -0.0000
    -0.0000

          k = 0.0000 0.2887 0.0000 (  2651 PWs)   bands (ev):

   -64.6187 -38.4987 -38.0100 -37.6407 -15.4963 -15.4962  -7.1117  -5.4202
    -5.3653  -5.1808  -5.1805  -4.7239  -4.6879  -4.4618  -3.5888  -3.5870
    -3.2844  -3.1747  -1.0340   2.4227   2.9159   3.1647   3.4712   3.6485
     4.0036

     occupation numbers 
     1.0000   1.0000   1.0000   1.0000   1.0000   1.0000   1.0000   1.0006
     1.0015   1.0157   1.0157   0.5747   0.4633  -0.0067  -0.0000  -0.0000
    -0.0000  -0.0000  -0.0000  -0.0000  -0.0000  -0.0000  -0.0000  -0.0000
    -0.0000

          k = 0.0000-0.5774 0.0000 (  2682 PWs)   bands (ev):

   -64.6141 -38.5244 -38.1337 -37.7667 -14.9712 -14.9712  -6.8007  -6.7982
    -6.3074  -5.4752  -4.7417  -4.7028  -4.1631  -3.9642  -3.9633  -3.5098
    -3.0211  -1.9605   0.5029   0.6323   3.2564   3.3162   3.9161   4.0694
     4.7811

     occupation numbers 
     1.0000   1.0000   1.0000   1.0000   1.0000   1.0000   1.0000   1.0000
     1.0000   1.0002   0.6288   0.5094  -0.0087  -0.0004  -0.0004  -0.0000
    -0.0000  -0.0000  -0.0000  -0.0000  -0.0000  -0.0000  -0.0000  -0.0000
    -0.0000

          k = 0.2500 0.4330 0.0000 (  2718 PWs)   bands (ev):

   -64.6164 -38.5107 -38.1753 -37.9436 -14.9808 -14.9808  -6.2105  -6.2072
    -5.3292  -5.2648  -5.1722  -4.9454  -4.9424  -4.7219  -4.7014  -4.1852
    -4.1069  -1.0815   0.9346   1.5342   3.3741   3.7686   4.1436   4.5186
     4.9331

     occupation numbers 
     1.0000   1.0000   1.0000   1.0000   1.0000   1.0000   1.0000   1.0000
     1.0026   1.0062   1.0170   1.0118   1.0099   0.5685   0.5051  -0.0112
    -0.0043  -0.0000  -0.0000  -0.0000  -0.0000  -0.0000  -0.0000  -0.0000
    -0.0000

     the Fermi energy is    -4.6998 ev

!    total energy              =    -451.48482128 Ry

     total all-electron energy =     -9221.689332 Ry
     estimated scf accuracy    <          4.6E-09 Ry
     smearing contrib. (-TS)   =      -0.00647748 Ry
     internal energy E=F+TS    =    -451.47834380 Ry

     The total energy is F=E-TS. E is the sum of the following terms:
     one-electron contribution =   -1478.34352952 Ry
     hartree contribution      =     737.63141055 Ry
     xc contribution           =     -30.91222629 Ry
     ewald contribution        =     613.75036080 Ry
     one-center paw contrib.   =    -293.60435934 Ry
      -> PAW hartree energy AE =     106.94600484 Ry
      -> PAW hartree energy PS =    -106.72766302 Ry
      -> PAW xc energy AE      =    -277.38394578 Ry
      -> PAW xc energy PS      =      25.22892678 Ry
      -> total E_H with PAW    =     737.84975237 Ry
      -> total E_XC with PAW   =    -283.06724529 Ry

     convergence has been achieved in  35 iterations

     Writing output data file ./tmp/NbS2.save/

     init_run     :      2.88s CPU      3.13s WALL (       1 calls)
     electrons    :    105.03s CPU    123.65s WALL (       1 calls)

     Called by init_run:
     wfcinit      :      0.10s CPU      0.10s WALL (       1 calls)
     wfcinit:atom :      0.00s CPU      0.00s WALL (       4 calls)
     wfcinit:wfcr :      0.10s CPU      0.10s WALL (       4 calls)
     potinit      :      0.67s CPU      0.71s WALL (       1 calls)
     hinit0       :      1.02s CPU      1.04s WALL (       1 calls)

     Called by electrons:
     c_bands      :      9.28s CPU      9.50s WALL (      35 calls)
     sum_band     :     54.37s CPU     64.12s WALL (      35 calls)
     v_of_rho     :      2.91s CPU      3.38s WALL (      36 calls)
     v_h          :      1.64s CPU      1.91s WALL (      36 calls)
     v_xc         :      1.27s CPU      1.47s WALL (      36 calls)
     newd         :     32.73s CPU     40.72s WALL (      36 calls)
     PAW_pot      :      1.89s CPU      1.90s WALL (      36 calls)
     mix_rho      :      3.19s CPU      3.26s WALL (      35 calls)

     Called by c_bands:
     init_us_2    :      0.14s CPU      0.15s WALL (     284 calls)
     cegterg      :      8.99s CPU      9.18s WALL (     140 calls)

     Called by sum_band:
     sum_band:wei :      0.01s CPU      0.01s WALL (      35 calls)
     sum_band:loo :      1.39s CPU      1.43s WALL (      35 calls)
     sum_band:buf :      0.04s CPU      0.04s WALL (     140 calls)
     sum_band:ini :      0.06s CPU      0.07s WALL (     140 calls)
     sum_band:cal :      0.23s CPU      0.24s WALL (     140 calls)
     sum_band:bec :      0.00s CPU      0.00s WALL (     140 calls)
     addusdens    :     50.40s CPU     59.95s WALL (      35 calls)
     addusd:skk   :      0.09s CPU      0.13s WALL (      70 calls)
     addusd:dgemm :     13.14s CPU     20.96s WALL (      70 calls)
     addusd:qvan2 :     34.80s CPU     34.81s WALL (      70 calls)

     Called by *egterg:
     cdiaghg      :      0.32s CPU      0.32s WALL (     443 calls)
     cegterg:over :      0.86s CPU      0.86s WALL (     303 calls)
     cegterg:upda :      0.40s CPU      0.40s WALL (     303 calls)
     cegterg:last :      0.73s CPU      0.73s WALL (     215 calls)
     h_psi        :      5.76s CPU      5.93s WALL (     447 calls)
     s_psi        :      0.46s CPU      0.46s WALL (     447 calls)
     g_psi        :      0.02s CPU      0.02s WALL (     303 calls)

     Called by h_psi:
     h_psi:calbec :      0.65s CPU      0.66s WALL (     447 calls)
     vloc_psi     :      4.61s CPU      4.76s WALL (     447 calls)
     add_vuspsi   :      0.46s CPU      0.46s WALL (     447 calls)

     General routines
     calbec       :      0.88s CPU      0.90s WALL (     587 calls)
     fft          :      7.56s CPU      8.06s WALL (     214 calls)
     ffts         :      0.05s CPU      0.06s WALL (      71 calls)
     fftw         :      5.14s CPU      5.31s WALL (   19646 calls)
     interpolate  :      1.27s CPU      1.52s WALL (      36 calls)

     Parallel routines
     fft_scatt_xy :      1.62s CPU      1.66s WALL (   19931 calls)
     fft_scatt_yz :      2.64s CPU      2.87s WALL (   19931 calls)

     PAW routines
     PAW_pot      :      1.89s CPU      1.90s WALL (      36 calls)
     PAW_symme    :      0.01s CPU      0.01s WALL (      71 calls)

     PWSCF        :   1m48.97s CPU   2m 7.96s WALL


   This run was terminated on:  15:14: 1  10Jun2021            

=------------------------------------------------------------------------------=
   JOB DONE.
=------------------------------------------------------------------------------=
