
     Program PWSCF v.6.6 starts on 10Jun2021 at 15:37: 7 

     This program is part of the open-source Quantum ESPRESSO suite
     for quantum simulation of materials; please cite
         "P. Giannozzi et al., J. Phys.:Condens. Matter 21 395502 (2009);
         "P. Giannozzi et al., J. Phys.:Condens. Matter 29 465901 (2017);
          URL http://www.quantum-espresso.org", 
     in publications or presentations arising from this work. More details at
     http://www.quantum-espresso.org/quote

     Parallel version (MPI), running on     2 processors

     MPI processes distributed on     1 nodes
     R & G space division:  proc/nbgrp/npool/nimage =       2
     Fft bands division:     nmany     =       1
     Waiting for input...
     Reading input from standard input

     Current dimensions of program PWSCF are:
     Max number of different atomic species (ntypx) = 10
     Max number of k-points (npk) =  40000
     Max angular momentum in pseudopotentials (lmaxx) =  3
     file Nb.pz-spn-kjpaw_psl.1.0.0.UPF: wavefunction(s)  4S 4P 4D renormalized
     file S.pz-n-kjpaw_psl.0.1.UPF: wavefunction(s)  3P renormalized

     Subspace diagonalization in iterative solution of the eigenvalue problem:
     a serial algorithm will be used


     Parallelization info
     --------------------
     sticks:   dense  smooth     PW     G-vecs:    dense   smooth      PW
     Min         579     579    156               184729   184729   27076
     Max         580     580    157               184746   184746   27119
     Sum        1159    1159    313               369475   369475   54195



     bravais-lattice index     =            4
     lattice parameter (alat)  =       6.4591  a.u.
     unit-cell volume          =    2731.0606 (a.u.)^3
     number of atoms/cell      =            3
     number of atomic types    =            2
     number of electrons       =        25.00
     number of Kohn-Sham states=           25
     kinetic-energy cutoff     =     100.0000  Ry
     charge density cutoff     =     400.0000  Ry
     convergence threshold     =      1.0E-08
     mixing beta               =       0.7000
     number of iterations used =            8  plain     mixing
     Exchange-correlation= SLA PZ NOGX NOGC
                           (   1   1   0   0   0   0   0)

     celldm(1)=   6.459084  celldm(2)=   0.000000  celldm(3)=  11.702750
     celldm(4)=   0.000000  celldm(5)=   0.000000  celldm(6)=   0.000000

     crystal axes: (cart. coord. in units of alat)
               a(1) = (   1.000000   0.000000   0.000000 )  
               a(2) = (  -0.500000   0.866025   0.000000 )  
               a(3) = (   0.000000   0.000000  11.702750 )  

     reciprocal axes: (cart. coord. in units 2 pi/alat)
               b(1) = (  1.000000  0.577350 -0.000000 )  
               b(2) = (  0.000000  1.154701  0.000000 )  
               b(3) = (  0.000000 -0.000000  0.085450 )  


     PseudoPot. # 1 for Nb read from file:
     ../Nb.pz-spn-kjpaw_psl.1.0.0.UPF
     MD5 check sum: 38c2e04b3cc915696ca8dc9f46a23270
     Pseudo is Projector augmented-wave + core cor, Zval = 13.0
     Generated using "atomic" code by A. Dal Corso v.6.2.2
     Shape of augmentation charge: PSQ
     Using radial grid of 1227 points,  6 beta functions with: 
                l(1) =   0
                l(2) =   0
                l(3) =   1
                l(4) =   1
                l(5) =   2
                l(6) =   2
     Q(r) pseudized with 0 coefficients 


     PseudoPot. # 2 for S  read from file:
     ../S.pz-n-kjpaw_psl.0.1.UPF
     MD5 check sum: c0b1682311cf098e03f7841691d9a679
     Pseudo is Projector augmented-wave + core cor, Zval =  6.0
     Generated using "atomic" code by A. Dal Corso v.5.0.2 svn rev. 9415
     Shape of augmentation charge: PSQ
     Using radial grid of 1151 points,  4 beta functions with: 
                l(1) =   0
                l(2) =   0
                l(3) =   1
                l(4) =   1
     Q(r) pseudized with 0 coefficients 


     atomic species   valence    mass     pseudopotential
        Nb            13.00    92.90600     Nb( 1.00)
        S              6.00    32.06500     S ( 1.00)

     12 Sym. Ops. (no inversion) found ( 6 have fractional translation)


                                    s                        frac. trans.

      isym =  1     identity                                     

 cryst.   s( 1) = (     1          0          0      )
                  (     0          1          0      )
                  (     0          0          1      )

 cart.    s( 1) = (  1.0000000  0.0000000  0.0000000 )
                  (  0.0000000  1.0000000  0.0000000 )
                  (  0.0000000  0.0000000  1.0000000 )


      isym =  2     180 deg rotation - cart. axis [0,1,0]        

 cryst.   s( 2) = (    -1          0          0      )    f =(  0.0000000 )
                  (     1          1          0      )       (  0.0000000 )
                  (     0          0         -1      )       (  0.5000000 )

 cart.    s( 2) = ( -1.0000000  0.0000000  0.0000000 )    f =(  0.0000000 )
                  (  0.0000000  1.0000000  0.0000000 )       (  0.0000000 )
                  (  0.0000000  0.0000000 -1.0000000 )       (  5.8513751 )


      isym =  3     120 deg rotation - cryst. axis [0,0,1]       

 cryst.   s( 3) = (     0          1          0      )
                  (    -1         -1          0      )
                  (     0          0          1      )

 cart.    s( 3) = ( -0.5000000 -0.8660254  0.0000000 )
                  (  0.8660254 -0.5000000  0.0000000 )
                  (  0.0000000  0.0000000  1.0000000 )


      isym =  4     120 deg rotation - cryst. axis [0,0,-1]      

 cryst.   s( 4) = (    -1         -1          0      )
                  (     1          0          0      )
                  (     0          0          1      )

 cart.    s( 4) = ( -0.5000000  0.8660254  0.0000000 )
                  ( -0.8660254 -0.5000000  0.0000000 )
                  (  0.0000000  0.0000000  1.0000000 )


      isym =  5     180 deg rotation - cryst. axis [1,-1,0]      

 cryst.   s( 5) = (     0         -1          0      )    f =(  0.0000000 )
                  (    -1          0          0      )       (  0.0000000 )
                  (     0          0         -1      )       (  0.5000000 )

 cart.    s( 5) = (  0.5000000 -0.8660254  0.0000000 )    f =(  0.0000000 )
                  ( -0.8660254 -0.5000000  0.0000000 )       (  0.0000000 )
                  (  0.0000000  0.0000000 -1.0000000 )       (  5.8513751 )


      isym =  6     180 deg rotation - cryst. axis [2,1,0]       

 cryst.   s( 6) = (     1          1          0      )    f =(  0.0000000 )
                  (     0         -1          0      )       (  0.0000000 )
                  (     0          0         -1      )       (  0.5000000 )

 cart.    s( 6) = (  0.5000000  0.8660254  0.0000000 )    f =( -0.0000000 )
                  (  0.8660254 -0.5000000  0.0000000 )       (  0.0000000 )
                  (  0.0000000  0.0000000 -1.0000000 )       (  5.8513751 )


      isym =  7     inv. 180 deg rotation - cart. axis [0,0,1]   

 cryst.   s( 7) = (     1          0          0      )    f =(  0.0000000 )
                  (     0          1          0      )       (  0.0000000 )
                  (     0          0         -1      )       (  0.5000000 )

 cart.    s( 7) = (  1.0000000  0.0000000  0.0000000 )    f =(  0.0000000 )
                  (  0.0000000  1.0000000  0.0000000 )       (  0.0000000 )
                  (  0.0000000  0.0000000 -1.0000000 )       (  5.8513751 )


      isym =  8     inv. 180 deg rotation - cart. axis [1,0,0]   

 cryst.   s( 8) = (    -1          0          0      )
                  (     1          1          0      )
                  (     0          0          1      )

 cart.    s( 8) = ( -1.0000000  0.0000000  0.0000000 )
                  (  0.0000000  1.0000000  0.0000000 )
                  (  0.0000000  0.0000000  1.0000000 )


      isym =  9     inv.  60 deg rotation - cryst. axis [0,0,1]  

 cryst.   s( 9) = (    -1         -1          0      )    f =(  0.0000000 )
                  (     1          0          0      )       (  0.0000000 )
                  (     0          0         -1      )       (  0.5000000 )

 cart.    s( 9) = ( -0.5000000  0.8660254  0.0000000 )    f =( -0.0000000 )
                  ( -0.8660254 -0.5000000  0.0000000 )       (  0.0000000 )
                  (  0.0000000  0.0000000 -1.0000000 )       (  5.8513751 )


      isym = 10     inv.  60 deg rotation - cryst. axis [0,0,-1] 

 cryst.   s(10) = (     0          1          0      )    f =(  0.0000000 )
                  (    -1         -1          0      )       (  0.0000000 )
                  (     0          0         -1      )       (  0.5000000 )

 cart.    s(10) = ( -0.5000000 -0.8660254  0.0000000 )    f =(  0.0000000 )
                  (  0.8660254 -0.5000000  0.0000000 )       (  0.0000000 )
                  (  0.0000000  0.0000000 -1.0000000 )       (  5.8513751 )


      isym = 11     inv. 180 deg rotation - cryst. axis [0,1,0]  

 cryst.   s(11) = (     1          1          0      )
                  (     0         -1          0      )
                  (     0          0          1      )

 cart.    s(11) = (  0.5000000  0.8660254  0.0000000 )
                  (  0.8660254 -0.5000000  0.0000000 )
                  (  0.0000000  0.0000000  1.0000000 )


      isym = 12     inv. 180 deg rotation - cryst. axis [1,1,0]  

 cryst.   s(12) = (     0         -1          0      )
                  (    -1          0          0      )
                  (     0          0          1      )

 cart.    s(12) = (  0.5000000 -0.8660254  0.0000000 )
                  ( -0.8660254 -0.5000000  0.0000000 )
                  (  0.0000000  0.0000000  1.0000000 )


     point group D_3h (-62m)
     there are  6 classes
     the character table:

       E     2C3   3C2   s_h   2S3   3s_v 
A'_1   1.00  1.00  1.00  1.00  1.00  1.00
A'_2   1.00  1.00 -1.00  1.00  1.00 -1.00
E'     2.00 -1.00  0.00  2.00 -1.00  0.00
A''1   1.00  1.00  1.00 -1.00 -1.00 -1.00
A''2   1.00  1.00 -1.00 -1.00 -1.00  1.00
E''    2.00 -1.00  0.00 -2.00  1.00  0.00

     the symmetry operations in each class and the name of the first element:

     E        1
          identity                                               
     2C3      3    4
          120 deg rotation - cryst. axis [0,0,1]                 
     3C2      2    6    5
          180 deg rotation - cart. axis [0,1,0]                  
     s_h      7
          inv. 180 deg rotation - cart. axis [0,0,1]             
     2S3      9   10
          inv.  60 deg rotation - cryst. axis [0,0,1]            
     3s_v     8   11   12
          inv. 180 deg rotation - cart. axis [1,0,0]             

   Cartesian axes

     site n.     atom                  positions (alat units)
         1           S   tau(   1) = (   0.0000000   0.5773503   4.3089526  )
         2           Nb  tau(   2) = (   0.0000000   0.0000000   2.9256875  )
         3           S   tau(   3) = (   0.0000000   0.5773503   1.5424225  )

   Crystallographic axes

     site n.     atom                  positions (cryst. coord.)
         1           S   tau(   1) = (  0.3333333  0.6666667  0.3682000  )
         2           Nb  tau(   2) = (  0.0000000  0.0000000  0.2500000  )
         3           S   tau(   3) = (  0.3333333  0.6666667  0.1318000  )

     number of k points=     4  Methfessel-Paxton smearing, width (Ry)=  0.0200
                       cart. coord. in units 2pi/alat
        k(    1) = (   0.0000000   0.0000000   0.0000000), wk =   0.1250000
        k(    2) = (   0.0000000   0.2886751   0.0000000), wk =   0.7500000
        k(    3) = (   0.0000000  -0.5773503   0.0000000), wk =   0.3750000
        k(    4) = (   0.2500000   0.4330127   0.0000000), wk =   0.7500000

                       cryst. coord.
        k(    1) = (   0.0000000   0.0000000   0.0000000), wk =   0.1250000
        k(    2) = (   0.0000000   0.2500000   0.0000000), wk =   0.7500000
        k(    3) = (   0.0000000  -0.5000000   0.0000000), wk =   0.3750000
        k(    4) = (   0.2500000   0.2500000   0.0000000), wk =   0.7500000

     Dense  grid:   369475 G-vectors     FFT dimensions: (  45,  45, 486)

     Dynamical RAM for                 wfc:       8.80 MB

     Dynamical RAM for     wfc (w. buffer):      43.98 MB

     Dynamical RAM for           str. fact:       5.64 MB

     Dynamical RAM for           local pot:       0.00 MB

     Dynamical RAM for          nlocal pot:      11.96 MB

     Dynamical RAM for                qrad:       3.21 MB

     Dynamical RAM for          rho,v,vnew:      19.72 MB

     Dynamical RAM for               rhoin:       6.57 MB

     Dynamical RAM for            rho*nmix:      45.10 MB

     Dynamical RAM for           G-vectors:      11.98 MB

     Dynamical RAM for          h,s,v(r/c):       0.11 MB

     Dynamical RAM for          <psi|beta>:       0.01 MB

     Dynamical RAM for                 psi:      17.59 MB

     Dynamical RAM for                hpsi:      17.59 MB

     Dynamical RAM for                spsi:      17.59 MB

     Dynamical RAM for      wfcinit/wfcrot:      17.61 MB

     Dynamical RAM for           addusdens:     529.97 MB

     Estimated static dynamical RAM per process >     175.40 MB

     Estimated max dynamical RAM per process >     705.37 MB

     Estimated total dynamical RAM >       1.38 GB

     Initial potential from superposition of free atoms

     starting charge   24.99887, renormalised to   25.00000

     negative rho (up, down):  3.555E-04 0.000E+00
     Starting wfcs are   21 randomized atomic wfcs +    4 random wfcs
     Checking if some PAW data can be deallocated... 
       PAW data deallocated on    1 nodes for type:  1

     total cpu time spent up to now is        9.6 secs

     Self-consistent Calculation

     iteration #  1     ecut=   100.00 Ry     beta= 0.70
     Davidson diagonalization with overlap
     ethr =  1.00E-02,  avg # of iterations = 10.2

     negative rho (up, down):  4.215E-04 0.000E+00

     total cpu time spent up to now is       38.2 secs

     total energy              =    -451.74732750 Ry
     estimated scf accuracy    <       1.55533099 Ry

     iteration #  2     ecut=   100.00 Ry     beta= 0.70
     Davidson diagonalization with overlap
     ethr =  6.22E-03,  avg # of iterations =  4.0

     negative rho (up, down):  4.236E-04 0.000E+00

     total cpu time spent up to now is       64.6 secs

     total energy              =    -446.81505418 Ry
     estimated scf accuracy    <     192.57536642 Ry

     iteration #  3     ecut=   100.00 Ry     beta= 0.70
     Davidson diagonalization with overlap
     ethr =  6.22E-03,  avg # of iterations =  5.5

     negative rho (up, down):  4.312E-04 0.000E+00

     total cpu time spent up to now is       89.9 secs

     total energy              =    -452.73822112 Ry
     estimated scf accuracy    <       5.44061566 Ry

     iteration #  4     ecut=   100.00 Ry     beta= 0.70
     Davidson diagonalization with overlap
     ethr =  6.22E-03,  avg # of iterations =  1.5

     negative rho (up, down):  4.375E-04 0.000E+00

     total cpu time spent up to now is      108.2 secs

     total energy              =    -452.93096450 Ry
     estimated scf accuracy    <       2.46597345 Ry

     iteration #  5     ecut=   100.00 Ry     beta= 0.70
     Davidson diagonalization with overlap
     ethr =  6.22E-03,  avg # of iterations =  1.0

     negative rho (up, down):  4.425E-04 0.000E+00

     total cpu time spent up to now is      126.2 secs

     total energy              =    -452.98606003 Ry
     estimated scf accuracy    <       0.10978359 Ry

     iteration #  6     ecut=   100.00 Ry     beta= 0.70
     Davidson diagonalization with overlap
     ethr =  4.39E-04,  avg # of iterations =  6.8

     negative rho (up, down):  4.634E-04 0.000E+00

     total cpu time spent up to now is      148.1 secs

     total energy              =    -452.97617544 Ry
     estimated scf accuracy    <       0.10434882 Ry

     iteration #  7     ecut=   100.00 Ry     beta= 0.70
     Davidson diagonalization with overlap
     ethr =  4.17E-04,  avg # of iterations =  6.0

     negative rho (up, down):  4.648E-04 0.000E+00

     total cpu time spent up to now is      168.0 secs

     total energy              =    -452.98652747 Ry
     estimated scf accuracy    <       0.53762759 Ry

     iteration #  8     ecut=   100.00 Ry     beta= 0.70
     Davidson diagonalization with overlap
     ethr =  4.17E-04,  avg # of iterations =  1.0

     negative rho (up, down):  4.694E-04 0.000E+00

     total cpu time spent up to now is      185.9 secs

     total energy              =    -452.97915161 Ry
     estimated scf accuracy    <       0.31781366 Ry

     iteration #  9     ecut=   100.00 Ry     beta= 0.70
     Davidson diagonalization with overlap
     ethr =  4.17E-04,  avg # of iterations =  1.0

     negative rho (up, down):  4.669E-04 0.000E+00

     total cpu time spent up to now is      203.8 secs

     total energy              =    -452.98300743 Ry
     estimated scf accuracy    <       0.00780882 Ry

     iteration # 10     ecut=   100.00 Ry     beta= 0.70
     Davidson diagonalization with overlap
     ethr =  3.12E-05,  avg # of iterations =  2.0

     negative rho (up, down):  4.665E-04 0.000E+00

     total cpu time spent up to now is      222.3 secs

     total energy              =    -452.98318293 Ry
     estimated scf accuracy    <       0.02637373 Ry

     iteration # 11     ecut=   100.00 Ry     beta= 0.70
     Davidson diagonalization with overlap
     ethr =  3.12E-05,  avg # of iterations =  1.0

     negative rho (up, down):  4.663E-04 0.000E+00

     total cpu time spent up to now is      240.2 secs

     total energy              =    -452.98334976 Ry
     estimated scf accuracy    <       0.00069297 Ry

     iteration # 12     ecut=   100.00 Ry     beta= 0.70
     Davidson diagonalization with overlap
     ethr =  2.77E-06,  avg # of iterations =  3.0

     negative rho (up, down):  4.662E-04 0.000E+00

     total cpu time spent up to now is      259.3 secs

     total energy              =    -452.98336619 Ry
     estimated scf accuracy    <       0.00034450 Ry

     iteration # 13     ecut=   100.00 Ry     beta= 0.70
     Davidson diagonalization with overlap
     ethr =  1.38E-06,  avg # of iterations =  1.0

     negative rho (up, down):  4.662E-04 0.000E+00

     total cpu time spent up to now is      277.3 secs

     total energy              =    -452.98336666 Ry
     estimated scf accuracy    <       0.00004765 Ry

     iteration # 14     ecut=   100.00 Ry     beta= 0.70
     Davidson diagonalization with overlap
     ethr =  1.91E-07,  avg # of iterations =  1.0

     negative rho (up, down):  4.662E-04 0.000E+00

     total cpu time spent up to now is      295.1 secs

     total energy              =    -452.98336713 Ry
     estimated scf accuracy    <       0.00000002 Ry

     iteration # 15     ecut=   100.00 Ry     beta= 0.70
     Davidson diagonalization with overlap
     ethr =  6.84E-11,  avg # of iterations =  2.8

     negative rho (up, down):  4.662E-04 0.000E+00

     total cpu time spent up to now is      314.9 secs

     End of self-consistent calculation

          k = 0.0000 0.0000 0.0000 ( 46087 PWs)   bands (ev):

   -60.2875 -36.6504 -35.9912 -35.9912 -15.9244 -15.9243  -7.8919  -5.8835
    -5.8677  -4.8500  -4.2731  -4.2731  -3.2887  -3.2887  -3.1646  -3.1646
    -3.1644  -3.1644  -2.9860   1.4404   1.8444   2.2841   2.5221   2.5370
     3.0576

     occupation numbers 
     1.0000   1.0000   1.0000   1.0000   1.0000   1.0000   1.0000   1.0000
     1.0000   0.8710  -0.0222  -0.0222  -0.0000  -0.0000  -0.0000  -0.0000
    -0.0000  -0.0000  -0.0000  -0.0000  -0.0000  -0.0000  -0.0000  -0.0000
    -0.0000

          k = 0.0000 0.2887 0.0000 ( 46120 PWs)   bands (ev):

   -60.2772 -36.6371 -36.1002 -36.0179 -15.4925 -15.4925  -6.6507  -5.4167
    -5.3907  -5.1900  -5.1893  -4.7247  -4.7149  -4.4807  -3.6019  -3.6004
    -3.4957  -3.3199  -0.9867   2.4117   2.9074   3.1496   3.4141   3.6055
     3.9601

     occupation numbers 
     1.0000   1.0000   1.0000   1.0000   1.0000   1.0000   1.0000   1.0008
     1.0012   1.0164   1.0165   0.5348   0.5046  -0.0029  -0.0000  -0.0000
    -0.0000  -0.0000  -0.0000  -0.0000  -0.0000  -0.0000  -0.0000  -0.0000
    -0.0000

          k = 0.0000-0.5774 0.0000 ( 46184 PWs)   bands (ev):

   -60.2670 -36.6237 -36.2074 -36.0444 -14.9669 -14.9669  -6.8069  -6.8054
    -6.2255  -5.4363  -4.7515  -4.7131  -4.1209  -3.9753  -3.9743  -3.6926
    -2.6871  -2.0165   0.5448   0.8260   3.1805   3.1889   3.7847   3.9097
     4.5464

     occupation numbers 
     1.0000   1.0000   1.0000   1.0000   1.0000   1.0000   1.0000   1.0000
     1.0000   1.0006   0.6171   0.4988  -0.0043  -0.0004  -0.0004  -0.0000
    -0.0000  -0.0000  -0.0000  -0.0000  -0.0000  -0.0000  -0.0000  -0.0000
    -0.0000

          k = 0.2500 0.4330 0.0000 ( 46072 PWs)   bands (ev):

   -60.2669 -36.6238 -36.1670 -36.0857 -14.9765 -14.9765  -6.2162  -6.2148
    -5.1701  -5.1528  -4.9728  -4.9551  -4.9550  -4.7160  -4.7120  -4.1932
    -4.1227  -1.1291   1.0331   1.9483   3.3069   3.7199   4.0395   4.4699
     4.8963

     occupation numbers 
     1.0000   1.0000   1.0000   1.0000   1.0000   1.0000   1.0000   1.0000
     1.0195   1.0224   1.0195   1.0093   1.0092   0.5080   0.4955  -0.0105
    -0.0044  -0.0000  -0.0000  -0.0000  -0.0000  -0.0000  -0.0000  -0.0000
    -0.0000

     the Fermi energy is    -4.7135 ev

!    total energy              =    -452.98336713 Ry

     total all-electron energy =     -9223.187878 Ry
     estimated scf accuracy    <          1.7E-09 Ry
     smearing contrib. (-TS)   =      -0.00519341 Ry
     internal energy E=F+TS    =    -452.97817373 Ry

     The total energy is F=E-TS. E is the sum of the following terms:
     one-electron contribution =   -1481.68724414 Ry
     hartree contribution      =     740.34864863 Ry
     xc contribution           =     -31.33504865 Ry
     ewald contribution        =     613.75036080 Ry
     one-center paw contrib.   =    -294.05489037 Ry
      -> PAW hartree energy AE =      79.93468253 Ry
      -> PAW hartree energy PS =     -79.44919181 Ry
      -> PAW xc energy AE      =    -275.50170486 Ry
      -> PAW xc energy PS      =      22.63233206 Ry
      -> total E_H with PAW    =     740.83413935 Ry
      -> total E_XC with PAW   =    -284.20442144 Ry

     convergence has been achieved in  15 iterations

     Writing output data file ./tmp/NbS2.save/

     init_run     :      8.33s CPU      8.64s WALL (       1 calls)
     electrons    :    295.80s CPU    305.34s WALL (       1 calls)

     Called by init_run:
     wfcinit      :      5.60s CPU      5.68s WALL (       1 calls)
     wfcinit:atom :      0.05s CPU      0.05s WALL (       4 calls)
     wfcinit:wfcr :      5.47s CPU      5.53s WALL (       4 calls)
     potinit      :      0.63s CPU      0.65s WALL (       1 calls)
     hinit0       :      1.02s CPU      1.04s WALL (       1 calls)

     Called by electrons:
     c_bands      :    213.59s CPU    215.24s WALL (      15 calls)
     sum_band     :     64.33s CPU     68.85s WALL (      15 calls)
     v_of_rho     :      1.35s CPU      1.38s WALL (      16 calls)
     v_h          :      0.75s CPU      0.77s WALL (      16 calls)
     v_xc         :      0.61s CPU      0.61s WALL (      16 calls)
     newd         :     14.35s CPU     17.78s WALL (      16 calls)
     PAW_pot      :      0.86s CPU      0.86s WALL (      16 calls)
     mix_rho      :      2.14s CPU      2.17s WALL (      15 calls)

     Called by c_bands:
     init_us_2    :      1.22s CPU      1.22s WALL (     124 calls)
     cegterg      :    211.30s CPU    212.93s WALL (      60 calls)

     Called by sum_band:
     sum_band:wei :      0.00s CPU      0.00s WALL (      15 calls)
     sum_band:loo :     41.09s CPU     41.46s WALL (      15 calls)
     sum_band:buf :      0.29s CPU      0.29s WALL (      60 calls)
     sum_band:ini :      0.59s CPU      0.59s WALL (      60 calls)
     sum_band:cal :      3.58s CPU      3.58s WALL (      60 calls)
     sum_band:bec :      0.00s CPU      0.00s WALL (      60 calls)
     addusdens    :     21.38s CPU     25.46s WALL (      15 calls)
     addusd:skk   :      0.04s CPU      0.04s WALL (      30 calls)
     addusd:dgemm :      5.43s CPU      8.94s WALL (      30 calls)
     addusd:qvan2 :     14.83s CPU     14.83s WALL (      30 calls)

     Called by *egterg:
     cdiaghg      :      0.20s CPU      0.20s WALL (     251 calls)
     cegterg:over :     13.16s CPU     13.16s WALL (     191 calls)
     cegterg:upda :      7.30s CPU      7.32s WALL (     191 calls)
     cegterg:last :     13.63s CPU     13.63s WALL (      98 calls)
     h_psi        :    166.70s CPU    168.33s WALL (     255 calls)
     s_psi        :      8.49s CPU      8.49s WALL (     255 calls)
     g_psi        :      0.24s CPU      0.24s WALL (     191 calls)

     Called by h_psi:
     h_psi:calbec :      8.48s CPU      8.50s WALL (     255 calls)
     vloc_psi     :    149.06s CPU    150.67s WALL (     255 calls)
     add_vuspsi   :      8.49s CPU      8.50s WALL (     255 calls)

     General routines
     calbec       :     12.06s CPU     12.08s WALL (     315 calls)
     fft          :      2.33s CPU      2.41s WALL (      64 calls)
     ffts         :      0.53s CPU      0.53s WALL (      15 calls)
     fftw         :    155.26s CPU    157.07s WALL (    8674 calls)

     Parallel routines
     fft_scatt_xy :     29.49s CPU     29.58s WALL (    8753 calls)
     fft_scatt_yz :     18.72s CPU     19.65s WALL (    8753 calls)

     PAW routines
     PAW_pot      :      0.86s CPU      0.86s WALL (      16 calls)
     PAW_symme    :      0.01s CPU      0.01s WALL (      31 calls)

     PWSCF        :   5m 5.20s CPU   5m15.58s WALL


   This run was terminated on:  15:42:23  10Jun2021            

=------------------------------------------------------------------------------=
   JOB DONE.
=------------------------------------------------------------------------------=
