
     Program PWSCF v.6.6 starts on 10Jun2021 at 15:15:42 

     This program is part of the open-source Quantum ESPRESSO suite
     for quantum simulation of materials; please cite
         "P. Giannozzi et al., J. Phys.:Condens. Matter 21 395502 (2009);
         "P. Giannozzi et al., J. Phys.:Condens. Matter 29 465901 (2017);
          URL http://www.quantum-espresso.org", 
     in publications or presentations arising from this work. More details at
     http://www.quantum-espresso.org/quote

     Parallel version (MPI), running on     2 processors

     MPI processes distributed on     1 nodes
     R & G space division:  proc/nbgrp/npool/nimage =       2
     Fft bands division:     nmany     =       1
     Waiting for input...
     Reading input from standard input

     Current dimensions of program PWSCF are:
     Max number of different atomic species (ntypx) = 10
     Max number of k-points (npk) =  40000
     Max angular momentum in pseudopotentials (lmaxx) =  3
     file Nb.pz-spn-kjpaw_psl.1.0.0.UPF: wavefunction(s)  4S 4P 4D renormalized
     file S.pz-n-kjpaw_psl.0.1.UPF: wavefunction(s)  3P renormalized

     Subspace diagonalization in iterative solution of the eigenvalue problem:
     a serial algorithm will be used


     Parallelization info
     --------------------
     sticks:   dense  smooth     PW     G-vecs:    dense   smooth      PW
     Min         579     146     42               184729    23042    3930
     Max         580     149     43               184746    23045    3979
     Sum        1159     295     85               369475    46087    7909



     bravais-lattice index     =            4
     lattice parameter (alat)  =       6.4591  a.u.
     unit-cell volume          =    2731.0606 (a.u.)^3
     number of atoms/cell      =            3
     number of atomic types    =            2
     number of electrons       =        25.00
     number of Kohn-Sham states=           25
     kinetic-energy cutoff     =      25.0000  Ry
     charge density cutoff     =     400.0000  Ry
     convergence threshold     =      1.0E-08
     mixing beta               =       0.7000
     number of iterations used =            8  plain     mixing
     Exchange-correlation= SLA PZ NOGX NOGC
                           (   1   1   0   0   0   0   0)

     celldm(1)=   6.459084  celldm(2)=   0.000000  celldm(3)=  11.702750
     celldm(4)=   0.000000  celldm(5)=   0.000000  celldm(6)=   0.000000

     crystal axes: (cart. coord. in units of alat)
               a(1) = (   1.000000   0.000000   0.000000 )  
               a(2) = (  -0.500000   0.866025   0.000000 )  
               a(3) = (   0.000000   0.000000  11.702750 )  

     reciprocal axes: (cart. coord. in units 2 pi/alat)
               b(1) = (  1.000000  0.577350 -0.000000 )  
               b(2) = (  0.000000  1.154701  0.000000 )  
               b(3) = (  0.000000 -0.000000  0.085450 )  


     PseudoPot. # 1 for Nb read from file:
     ../Nb.pz-spn-kjpaw_psl.1.0.0.UPF
     MD5 check sum: 38c2e04b3cc915696ca8dc9f46a23270
     Pseudo is Projector augmented-wave + core cor, Zval = 13.0
     Generated using "atomic" code by A. Dal Corso v.6.2.2
     Shape of augmentation charge: PSQ
     Using radial grid of 1227 points,  6 beta functions with: 
                l(1) =   0
                l(2) =   0
                l(3) =   1
                l(4) =   1
                l(5) =   2
                l(6) =   2
     Q(r) pseudized with 0 coefficients 


     PseudoPot. # 2 for S  read from file:
     ../S.pz-n-kjpaw_psl.0.1.UPF
     MD5 check sum: c0b1682311cf098e03f7841691d9a679
     Pseudo is Projector augmented-wave + core cor, Zval =  6.0
     Generated using "atomic" code by A. Dal Corso v.5.0.2 svn rev. 9415
     Shape of augmentation charge: PSQ
     Using radial grid of 1151 points,  4 beta functions with: 
                l(1) =   0
                l(2) =   0
                l(3) =   1
                l(4) =   1
     Q(r) pseudized with 0 coefficients 


     atomic species   valence    mass     pseudopotential
        Nb            13.00    92.90600     Nb( 1.00)
        S              6.00    32.06500     S ( 1.00)

     12 Sym. Ops. (no inversion) found ( 6 have fractional translation)


                                    s                        frac. trans.

      isym =  1     identity                                     

 cryst.   s( 1) = (     1          0          0      )
                  (     0          1          0      )
                  (     0          0          1      )

 cart.    s( 1) = (  1.0000000  0.0000000  0.0000000 )
                  (  0.0000000  1.0000000  0.0000000 )
                  (  0.0000000  0.0000000  1.0000000 )


      isym =  2     180 deg rotation - cart. axis [0,1,0]        

 cryst.   s( 2) = (    -1          0          0      )    f =(  0.0000000 )
                  (     1          1          0      )       (  0.0000000 )
                  (     0          0         -1      )       (  0.5000000 )

 cart.    s( 2) = ( -1.0000000  0.0000000  0.0000000 )    f =(  0.0000000 )
                  (  0.0000000  1.0000000  0.0000000 )       (  0.0000000 )
                  (  0.0000000  0.0000000 -1.0000000 )       (  5.8513751 )


      isym =  3     120 deg rotation - cryst. axis [0,0,1]       

 cryst.   s( 3) = (     0          1          0      )
                  (    -1         -1          0      )
                  (     0          0          1      )

 cart.    s( 3) = ( -0.5000000 -0.8660254  0.0000000 )
                  (  0.8660254 -0.5000000  0.0000000 )
                  (  0.0000000  0.0000000  1.0000000 )


      isym =  4     120 deg rotation - cryst. axis [0,0,-1]      

 cryst.   s( 4) = (    -1         -1          0      )
                  (     1          0          0      )
                  (     0          0          1      )

 cart.    s( 4) = ( -0.5000000  0.8660254  0.0000000 )
                  ( -0.8660254 -0.5000000  0.0000000 )
                  (  0.0000000  0.0000000  1.0000000 )


      isym =  5     180 deg rotation - cryst. axis [1,-1,0]      

 cryst.   s( 5) = (     0         -1          0      )    f =(  0.0000000 )
                  (    -1          0          0      )       (  0.0000000 )
                  (     0          0         -1      )       (  0.5000000 )

 cart.    s( 5) = (  0.5000000 -0.8660254  0.0000000 )    f =(  0.0000000 )
                  ( -0.8660254 -0.5000000  0.0000000 )       (  0.0000000 )
                  (  0.0000000  0.0000000 -1.0000000 )       (  5.8513751 )


      isym =  6     180 deg rotation - cryst. axis [2,1,0]       

 cryst.   s( 6) = (     1          1          0      )    f =(  0.0000000 )
                  (     0         -1          0      )       (  0.0000000 )
                  (     0          0         -1      )       (  0.5000000 )

 cart.    s( 6) = (  0.5000000  0.8660254  0.0000000 )    f =( -0.0000000 )
                  (  0.8660254 -0.5000000  0.0000000 )       (  0.0000000 )
                  (  0.0000000  0.0000000 -1.0000000 )       (  5.8513751 )


      isym =  7     inv. 180 deg rotation - cart. axis [0,0,1]   

 cryst.   s( 7) = (     1          0          0      )    f =(  0.0000000 )
                  (     0          1          0      )       (  0.0000000 )
                  (     0          0         -1      )       (  0.5000000 )

 cart.    s( 7) = (  1.0000000  0.0000000  0.0000000 )    f =(  0.0000000 )
                  (  0.0000000  1.0000000  0.0000000 )       (  0.0000000 )
                  (  0.0000000  0.0000000 -1.0000000 )       (  5.8513751 )


      isym =  8     inv. 180 deg rotation - cart. axis [1,0,0]   

 cryst.   s( 8) = (    -1          0          0      )
                  (     1          1          0      )
                  (     0          0          1      )

 cart.    s( 8) = ( -1.0000000  0.0000000  0.0000000 )
                  (  0.0000000  1.0000000  0.0000000 )
                  (  0.0000000  0.0000000  1.0000000 )


      isym =  9     inv.  60 deg rotation - cryst. axis [0,0,1]  

 cryst.   s( 9) = (    -1         -1          0      )    f =(  0.0000000 )
                  (     1          0          0      )       (  0.0000000 )
                  (     0          0         -1      )       (  0.5000000 )

 cart.    s( 9) = ( -0.5000000  0.8660254  0.0000000 )    f =( -0.0000000 )
                  ( -0.8660254 -0.5000000  0.0000000 )       (  0.0000000 )
                  (  0.0000000  0.0000000 -1.0000000 )       (  5.8513751 )


      isym = 10     inv.  60 deg rotation - cryst. axis [0,0,-1] 

 cryst.   s(10) = (     0          1          0      )    f =(  0.0000000 )
                  (    -1         -1          0      )       (  0.0000000 )
                  (     0          0         -1      )       (  0.5000000 )

 cart.    s(10) = ( -0.5000000 -0.8660254  0.0000000 )    f =(  0.0000000 )
                  (  0.8660254 -0.5000000  0.0000000 )       (  0.0000000 )
                  (  0.0000000  0.0000000 -1.0000000 )       (  5.8513751 )


      isym = 11     inv. 180 deg rotation - cryst. axis [0,1,0]  

 cryst.   s(11) = (     1          1          0      )
                  (     0         -1          0      )
                  (     0          0          1      )

 cart.    s(11) = (  0.5000000  0.8660254  0.0000000 )
                  (  0.8660254 -0.5000000  0.0000000 )
                  (  0.0000000  0.0000000  1.0000000 )


      isym = 12     inv. 180 deg rotation - cryst. axis [1,1,0]  

 cryst.   s(12) = (     0         -1          0      )
                  (    -1          0          0      )
                  (     0          0          1      )

 cart.    s(12) = (  0.5000000 -0.8660254  0.0000000 )
                  ( -0.8660254 -0.5000000  0.0000000 )
                  (  0.0000000  0.0000000  1.0000000 )


     point group D_3h (-62m)
     there are  6 classes
     the character table:

       E     2C3   3C2   s_h   2S3   3s_v 
A'_1   1.00  1.00  1.00  1.00  1.00  1.00
A'_2   1.00  1.00 -1.00  1.00  1.00 -1.00
E'     2.00 -1.00  0.00  2.00 -1.00  0.00
A''1   1.00  1.00  1.00 -1.00 -1.00 -1.00
A''2   1.00  1.00 -1.00 -1.00 -1.00  1.00
E''    2.00 -1.00  0.00 -2.00  1.00  0.00

     the symmetry operations in each class and the name of the first element:

     E        1
          identity                                               
     2C3      3    4
          120 deg rotation - cryst. axis [0,0,1]                 
     3C2      2    6    5
          180 deg rotation - cart. axis [0,1,0]                  
     s_h      7
          inv. 180 deg rotation - cart. axis [0,0,1]             
     2S3      9   10
          inv.  60 deg rotation - cryst. axis [0,0,1]            
     3s_v     8   11   12
          inv. 180 deg rotation - cart. axis [1,0,0]             

   Cartesian axes

     site n.     atom                  positions (alat units)
         1           S   tau(   1) = (   0.0000000   0.5773503   4.3089526  )
         2           Nb  tau(   2) = (   0.0000000   0.0000000   2.9256875  )
         3           S   tau(   3) = (   0.0000000   0.5773503   1.5424225  )

   Crystallographic axes

     site n.     atom                  positions (cryst. coord.)
         1           S   tau(   1) = (  0.3333333  0.6666667  0.3682000  )
         2           Nb  tau(   2) = (  0.0000000  0.0000000  0.2500000  )
         3           S   tau(   3) = (  0.3333333  0.6666667  0.1318000  )

     number of k points=     4  Methfessel-Paxton smearing, width (Ry)=  0.0200
                       cart. coord. in units 2pi/alat
        k(    1) = (   0.0000000   0.0000000   0.0000000), wk =   0.1250000
        k(    2) = (   0.0000000   0.2886751   0.0000000), wk =   0.7500000
        k(    3) = (   0.0000000  -0.5773503   0.0000000), wk =   0.3750000
        k(    4) = (   0.2500000   0.4330127   0.0000000), wk =   0.7500000

                       cryst. coord.
        k(    1) = (   0.0000000   0.0000000   0.0000000), wk =   0.1250000
        k(    2) = (   0.0000000   0.2500000   0.0000000), wk =   0.7500000
        k(    3) = (   0.0000000  -0.5000000   0.0000000), wk =   0.3750000
        k(    4) = (   0.2500000   0.2500000   0.0000000), wk =   0.7500000

     Dense  grid:   369475 G-vectors     FFT dimensions: (  45,  45, 486)

     Smooth grid:    46087 G-vectors     FFT dimensions: (  24,  24, 250)

     Dynamical RAM for                 wfc:       1.10 MB

     Dynamical RAM for     wfc (w. buffer):       5.50 MB

     Dynamical RAM for           str. fact:       5.64 MB

     Dynamical RAM for           local pot:       0.00 MB

     Dynamical RAM for          nlocal pot:       1.50 MB

     Dynamical RAM for                qrad:       3.21 MB

     Dynamical RAM for          rho,v,vnew:      19.72 MB

     Dynamical RAM for               rhoin:       6.57 MB

     Dynamical RAM for            rho*nmix:      45.10 MB

     Dynamical RAM for           G-vectors:      10.75 MB

     Dynamical RAM for          h,s,v(r/c):       0.11 MB

     Dynamical RAM for          <psi|beta>:       0.01 MB

     Dynamical RAM for                 psi:       2.20 MB

     Dynamical RAM for                hpsi:       2.20 MB

     Dynamical RAM for                spsi:       2.20 MB

     Dynamical RAM for      wfcinit/wfcrot:       2.21 MB

     Dynamical RAM for           addusdens:     529.97 MB

     Estimated static dynamical RAM per process >     125.21 MB

     Estimated max dynamical RAM per process >     655.19 MB

     Estimated total dynamical RAM >       1.28 GB

     Initial potential from superposition of free atoms

     starting charge   24.99887, renormalised to   25.00000

     negative rho (up, down):  3.555E-04 0.000E+00
     Starting wfcs are   21 randomized atomic wfcs +    4 random wfcs
     Checking if some PAW data can be deallocated... 
       PAW data deallocated on    1 nodes for type:  1

     total cpu time spent up to now is        4.5 secs

     Self-consistent Calculation

     iteration #  1     ecut=    25.00 Ry     beta= 0.70
     Davidson diagonalization with overlap
     ethr =  1.00E-02,  avg # of iterations = 10.0

     negative rho (up, down):  3.797E-04 0.000E+00

     total cpu time spent up to now is       10.0 secs

     total energy              =    -451.20471456 Ry
     estimated scf accuracy    <       2.02505242 Ry

     iteration #  2     ecut=    25.00 Ry     beta= 0.70
     Davidson diagonalization with overlap
     ethr =  8.10E-03,  avg # of iterations =  4.8

     negative rho (up, down):  9.293E-04 0.000E+00

     total cpu time spent up to now is       15.4 secs

     total energy              =    -446.64025005 Ry
     estimated scf accuracy    <     204.02420874 Ry

     iteration #  3     ecut=    25.00 Ry     beta= 0.70
     Davidson diagonalization with overlap
     ethr =  8.10E-03,  avg # of iterations =  4.8

     negative rho (up, down):  5.587E-04 0.000E+00

     total cpu time spent up to now is       20.6 secs

     total energy              =    -452.18355956 Ry
     estimated scf accuracy    <      14.33807987 Ry

     iteration #  4     ecut=    25.00 Ry     beta= 0.70
     Davidson diagonalization with overlap
     ethr =  8.10E-03,  avg # of iterations =  3.5

     negative rho (up, down):  7.586E-04 0.000E+00

     total cpu time spent up to now is       25.3 secs

     total energy              =    -452.48745400 Ry
     estimated scf accuracy    <      10.89742320 Ry

     iteration #  5     ecut=    25.00 Ry     beta= 0.70
     Davidson diagonalization with overlap
     ethr =  8.10E-03,  avg # of iterations =  1.0

     negative rho (up, down):  5.259E-04 0.000E+00

     total cpu time spent up to now is       31.1 secs

     total energy              =    -452.88431951 Ry
     estimated scf accuracy    <       2.00123723 Ry

     iteration #  6     ecut=    25.00 Ry     beta= 0.70
     Davidson diagonalization with overlap
     ethr =  8.00E-03,  avg # of iterations =  1.0

     negative rho (up, down):  4.375E-04 0.000E+00

     total cpu time spent up to now is       38.1 secs

     total energy              =    -452.79708398 Ry
     estimated scf accuracy    <       2.05127360 Ry

     iteration #  7     ecut=    25.00 Ry     beta= 0.70
     Davidson diagonalization with overlap
     ethr =  8.00E-03,  avg # of iterations =  1.5

     negative rho (up, down):  5.644E-04 0.000E+00

     total cpu time spent up to now is       45.3 secs

     total energy              =    -452.86877053 Ry
     estimated scf accuracy    <       0.64450306 Ry

     iteration #  8     ecut=    25.00 Ry     beta= 0.70
     Davidson diagonalization with overlap
     ethr =  2.58E-03,  avg # of iterations =  2.2

     negative rho (up, down):  4.872E-04 0.000E+00

     total cpu time spent up to now is       49.9 secs

     total energy              =    -452.85856671 Ry
     estimated scf accuracy    <       1.13031002 Ry

     iteration #  9     ecut=    25.00 Ry     beta= 0.70
     Davidson diagonalization with overlap
     ethr =  2.58E-03,  avg # of iterations =  1.0

     negative rho (up, down):  4.291E-04 0.000E+00

     total cpu time spent up to now is       54.3 secs

     total energy              =    -452.85405199 Ry
     estimated scf accuracy    <       0.84967237 Ry

     iteration # 10     ecut=    25.00 Ry     beta= 0.70
     Davidson diagonalization with overlap
     ethr =  2.58E-03,  avg # of iterations =  1.0

     negative rho (up, down):  4.238E-04 0.000E+00

     total cpu time spent up to now is       58.7 secs

     total energy              =    -452.84277563 Ry
     estimated scf accuracy    <       0.61328380 Ry

     iteration # 11     ecut=    25.00 Ry     beta= 0.70
     Davidson diagonalization with overlap
     ethr =  2.45E-03,  avg # of iterations =  1.0

     negative rho (up, down):  5.086E-04 0.000E+00

     total cpu time spent up to now is       63.3 secs

     total energy              =    -452.84702188 Ry
     estimated scf accuracy    <       0.00582096 Ry

     iteration # 12     ecut=    25.00 Ry     beta= 0.70
     Davidson diagonalization with overlap
     ethr =  2.33E-05,  avg # of iterations =  7.5

     negative rho (up, down):  4.051E-04 0.000E+00

     total cpu time spent up to now is       68.0 secs

     total energy              =    -452.84589660 Ry
     estimated scf accuracy    <       0.02772765 Ry

     iteration # 13     ecut=    25.00 Ry     beta= 0.70
     Davidson diagonalization with overlap
     ethr =  2.33E-05,  avg # of iterations =  1.0

     negative rho (up, down):  4.116E-04 0.000E+00

     total cpu time spent up to now is       72.3 secs

     total energy              =    -452.84585471 Ry
     estimated scf accuracy    <       0.21106458 Ry

     iteration # 14     ecut=    25.00 Ry     beta= 0.70
     Davidson diagonalization with overlap
     ethr =  2.33E-05,  avg # of iterations =  1.0

     negative rho (up, down):  3.992E-04 0.000E+00

     total cpu time spent up to now is       76.7 secs

     total energy              =    -452.84779940 Ry
     estimated scf accuracy    <       0.00192471 Ry

     iteration # 15     ecut=    25.00 Ry     beta= 0.70
     Davidson diagonalization with overlap
     ethr =  7.70E-06,  avg # of iterations =  1.0

     negative rho (up, down):  3.976E-04 0.000E+00

     total cpu time spent up to now is       81.1 secs

     total energy              =    -452.84797561 Ry
     estimated scf accuracy    <       0.01346136 Ry

     iteration # 16     ecut=    25.00 Ry     beta= 0.70
     Davidson diagonalization with overlap
     ethr =  7.70E-06,  avg # of iterations =  1.0

     negative rho (up, down):  3.974E-04 0.000E+00

     total cpu time spent up to now is       85.5 secs

     total energy              =    -452.84728761 Ry
     estimated scf accuracy    <       0.03482826 Ry

     iteration # 17     ecut=    25.00 Ry     beta= 0.70
     Davidson diagonalization with overlap
     ethr =  7.70E-06,  avg # of iterations =  1.0

     negative rho (up, down):  3.964E-04 0.000E+00

     total cpu time spent up to now is       89.7 secs

     total energy              =    -452.84767008 Ry
     estimated scf accuracy    <       0.00005673 Ry

     iteration # 18     ecut=    25.00 Ry     beta= 0.70
     Davidson diagonalization with overlap
     ethr =  2.27E-07,  avg # of iterations =  1.0

     negative rho (up, down):  3.963E-04 0.000E+00

     total cpu time spent up to now is       94.0 secs

     total energy              =    -452.84767228 Ry
     estimated scf accuracy    <       0.00000073 Ry

     iteration # 19     ecut=    25.00 Ry     beta= 0.70
     Davidson diagonalization with overlap
     ethr =  2.94E-09,  avg # of iterations =  2.0

     negative rho (up, down):  3.963E-04 0.000E+00

     total cpu time spent up to now is       98.3 secs

     total energy              =    -452.84767217 Ry
     estimated scf accuracy    <       0.00000424 Ry

     iteration # 20     ecut=    25.00 Ry     beta= 0.70
     Davidson diagonalization with overlap
     ethr =  2.94E-09,  avg # of iterations =  1.0

     negative rho (up, down):  3.963E-04 0.000E+00

     total cpu time spent up to now is      102.6 secs

     total energy              =    -452.84767225 Ry
     estimated scf accuracy    <       0.00000002 Ry

     iteration # 21     ecut=    25.00 Ry     beta= 0.70
     Davidson diagonalization with overlap
     ethr =  6.09E-11,  avg # of iterations =  2.2

     negative rho (up, down):  3.963E-04 0.000E+00

     total cpu time spent up to now is      107.0 secs

     total energy              =    -452.84767225 Ry
     estimated scf accuracy    <       0.00000003 Ry

     iteration # 22     ecut=    25.00 Ry     beta= 0.70
     Davidson diagonalization with overlap
     ethr =  6.09E-11,  avg # of iterations =  1.0

     negative rho (up, down):  3.963E-04 0.000E+00

     total cpu time spent up to now is      111.1 secs

     End of self-consistent calculation

          k = 0.0000 0.0000 0.0000 (  5749 PWs)   bands (ev):

   -60.6083 -36.8572 -36.1853 -36.1853 -15.9258 -15.9257  -7.9078  -5.8843
    -5.8686  -4.8442  -4.2548  -4.2548  -3.2725  -3.2725  -3.1648  -3.1648
    -3.1645  -3.1645  -3.0069   1.4463   1.8445   2.2943   2.5313   2.5444
     3.0658

     occupation numbers 
     1.0000   1.0000   1.0000   1.0000   1.0000   1.0000   1.0000   1.0000
     1.0000   0.8601  -0.0193  -0.0193  -0.0000  -0.0000  -0.0000  -0.0000
    -0.0000  -0.0000  -0.0000  -0.0000  -0.0000  -0.0000  -0.0000  -0.0000
    -0.0000

          k = 0.0000 0.2887 0.0000 (  5763 PWs)   bands (ev):

   -60.6005 -36.8439 -36.3051 -36.2098 -15.4940 -15.4940  -6.6681  -5.4180
    -5.3904  -5.1903  -5.1896  -4.7259  -4.7087  -4.4809  -3.6018  -3.6005
    -3.4780  -3.3033  -0.9951   2.4180   2.9100   3.1547   3.4246   3.6157
     3.9701

     occupation numbers 
     1.0000   1.0000   1.0000   1.0000   1.0000   1.0000   1.0000   1.0008
     1.0012   1.0163   1.0164   0.5400   0.4868  -0.0023  -0.0000  -0.0000
    -0.0000  -0.0000  -0.0000  -0.0000  -0.0000  -0.0000  -0.0000  -0.0000
    -0.0000

          k = 0.0000-0.5774 0.0000 (  5758 PWs)   bands (ev):

   -60.5908 -36.8264 -36.4149 -36.2375 -14.9684 -14.9684  -6.8076  -6.8061
    -6.2218  -5.4364  -4.7519  -4.7129  -4.1190  -3.9757  -3.9747  -3.6726
    -2.7232  -2.0185   0.5764   0.8072   3.1996   3.2114   3.8156   3.9425
     4.5802

     occupation numbers 
     1.0000   1.0000   1.0000   1.0000   1.0000   1.0000   1.0000   1.0000
     1.0000   1.0006   0.6197   0.4997  -0.0042  -0.0004  -0.0004  -0.0000
    -0.0000  -0.0000  -0.0000  -0.0000  -0.0000  -0.0000  -0.0000  -0.0000
    -0.0000

          k = 0.2500 0.4330 0.0000 (  5781 PWs)   bands (ev):

   -60.5936 -36.8308 -36.3796 -36.2844 -14.9780 -14.9780  -6.2167  -6.2153
    -5.1764  -5.1548  -4.9851  -4.9556  -4.9548  -4.7172  -4.7119  -4.1857
    -4.1263  -1.1227   1.0212   1.9405   3.3118   3.7255   4.0594   4.4782
     4.9039

     occupation numbers 
     1.0000   1.0000   1.0000   1.0000   1.0000   1.0000   1.0000   1.0000
     1.0184   1.0220   1.0251   1.0099   1.0094   0.5130   0.4965  -0.0097
    -0.0047  -0.0000  -0.0000  -0.0000  -0.0000  -0.0000  -0.0000  -0.0000
    -0.0000

     the Fermi energy is    -4.7130 ev

!    total energy              =    -452.84767225 Ry

     total all-electron energy =     -9223.052183 Ry
     estimated scf accuracy    <          6.6E-10 Ry
     smearing contrib. (-TS)   =      -0.00519722 Ry
     internal energy E=F+TS    =    -452.84247504 Ry

     The total energy is F=E-TS. E is the sum of the following terms:
     one-electron contribution =   -1481.45498914 Ry
     hartree contribution      =     740.12540953 Ry
     xc contribution           =     -31.29366399 Ry
     ewald contribution        =     613.75036080 Ry
     one-center paw contrib.   =    -293.96959224 Ry
      -> PAW hartree energy AE =      79.42203725 Ry
      -> PAW hartree energy PS =     -78.96746685 Ry
      -> PAW xc energy AE      =    -275.22552478 Ry
      -> PAW xc energy PS      =      22.47287093 Ry
      -> total E_H with PAW    =     740.57997993 Ry
      -> total E_XC with PAW   =    -284.04631784 Ry

     convergence has been achieved in  22 iterations

     Writing output data file ./tmp/NbS2.save/

     init_run     :      3.19s CPU      3.46s WALL (       1 calls)
     electrons    :     93.31s CPU    106.72s WALL (       1 calls)

     Called by init_run:
     wfcinit      :      0.45s CPU      0.45s WALL (       1 calls)
     wfcinit:atom :      0.00s CPU      0.00s WALL (       4 calls)
     wfcinit:wfcr :      0.43s CPU      0.43s WALL (       4 calls)
     potinit      :      0.65s CPU      0.68s WALL (       1 calls)
     hinit0       :      0.98s CPU      0.99s WALL (       1 calls)

     Called by electrons:
     c_bands      :     23.62s CPU     23.97s WALL (      22 calls)
     sum_band     :     41.32s CPU     48.35s WALL (      22 calls)
     v_of_rho     :      2.01s CPU      2.31s WALL (      23 calls)
     v_h          :      1.11s CPU      1.29s WALL (      23 calls)
     v_xc         :      0.90s CPU      1.01s WALL (      23 calls)
     newd         :     22.69s CPU     28.35s WALL (      23 calls)
     PAW_pot      :      1.30s CPU      1.30s WALL (      23 calls)
     mix_rho      :      2.21s CPU      2.27s WALL (      22 calls)

     Called by c_bands:
     init_us_2    :      0.23s CPU      0.23s WALL (     180 calls)
     cegterg      :     23.16s CPU     23.48s WALL (      88 calls)

     Called by sum_band:
     sum_band:wei :      0.00s CPU      0.00s WALL (      22 calls)
     sum_band:loo :      4.92s CPU      5.02s WALL (      22 calls)
     sum_band:buf :      0.05s CPU      0.05s WALL (      88 calls)
     sum_band:ini :      0.11s CPU      0.11s WALL (      88 calls)
     sum_band:cal :      0.45s CPU      0.46s WALL (      88 calls)
     sum_band:bec :      0.00s CPU      0.00s WALL (      88 calls)
     addusdens    :     34.31s CPU     41.14s WALL (      22 calls)
     addusd:skk   :      0.07s CPU      0.09s WALL (      44 calls)
     addusd:dgemm :      8.51s CPU     13.99s WALL (      44 calls)
     addusd:qvan2 :     24.10s CPU     24.27s WALL (      44 calls)

     Called by *egterg:
     cdiaghg      :      0.24s CPU      0.24s WALL (     294 calls)
     cegterg:over :      1.35s CPU      1.35s WALL (     206 calls)
     cegterg:upda :      0.73s CPU      0.73s WALL (     206 calls)
     cegterg:last :      1.43s CPU      1.43s WALL (     131 calls)
     h_psi        :     18.17s CPU     18.47s WALL (     298 calls)
     s_psi        :      0.85s CPU      0.85s WALL (     298 calls)
     g_psi        :      0.04s CPU      0.04s WALL (     206 calls)

     Called by h_psi:
     h_psi:calbec :      1.08s CPU      1.09s WALL (     298 calls)
     vloc_psi     :     16.15s CPU     16.42s WALL (     298 calls)
     add_vuspsi   :      0.84s CPU      0.86s WALL (     298 calls)

     General routines
     calbec       :      1.53s CPU      1.55s WALL (     386 calls)
     fft          :      5.19s CPU      5.54s WALL (     136 calls)
     ffts         :      0.15s CPU      0.15s WALL (      45 calls)
     fftw         :     16.88s CPU     17.17s WALL (   12370 calls)
     interpolate  :      0.93s CPU      1.12s WALL (      23 calls)

     Parallel routines
     fft_scatt_xy :      3.15s CPU      3.19s WALL (   12551 calls)
     fft_scatt_yz :      2.73s CPU      2.93s WALL (   12551 calls)

     PAW routines
     PAW_pot      :      1.30s CPU      1.30s WALL (      23 calls)
     PAW_symme    :      0.01s CPU      0.01s WALL (      45 calls)

     PWSCF        :   1m37.53s CPU   1m51.36s WALL


   This run was terminated on:  15:17:33  10Jun2021            

=------------------------------------------------------------------------------=
   JOB DONE.
=------------------------------------------------------------------------------=
