
     Program PWSCF v.6.6 starts on 10Jun2021 at 15:17:34 

     This program is part of the open-source Quantum ESPRESSO suite
     for quantum simulation of materials; please cite
         "P. Giannozzi et al., J. Phys.:Condens. Matter 21 395502 (2009);
         "P. Giannozzi et al., J. Phys.:Condens. Matter 29 465901 (2017);
          URL http://www.quantum-espresso.org", 
     in publications or presentations arising from this work. More details at
     http://www.quantum-espresso.org/quote

     Parallel version (MPI), running on     2 processors

     MPI processes distributed on     1 nodes
     R & G space division:  proc/nbgrp/npool/nimage =       2
     Fft bands division:     nmany     =       1
     Waiting for input...
     Reading input from standard input

     Current dimensions of program PWSCF are:
     Max number of different atomic species (ntypx) = 10
     Max number of k-points (npk) =  40000
     Max angular momentum in pseudopotentials (lmaxx) =  3
     file Nb.pz-spn-kjpaw_psl.1.0.0.UPF: wavefunction(s)  4S 4P 4D renormalized
     file S.pz-n-kjpaw_psl.0.1.UPF: wavefunction(s)  3P renormalized

     Subspace diagonalization in iterative solution of the eigenvalue problem:
     a serial algorithm will be used


     Parallelization info
     --------------------
     sticks:   dense  smooth     PW     G-vecs:    dense   smooth      PW
     Min         579     174     54               184729    30370    5080
     Max         580     175     55               184746    30397    5097
     Sum        1159     349    109               369475    60767   10177



     bravais-lattice index     =            4
     lattice parameter (alat)  =       6.4591  a.u.
     unit-cell volume          =    2731.0606 (a.u.)^3
     number of atoms/cell      =            3
     number of atomic types    =            2
     number of electrons       =        25.00
     number of Kohn-Sham states=           25
     kinetic-energy cutoff     =      30.0000  Ry
     charge density cutoff     =     400.0000  Ry
     convergence threshold     =      1.0E-08
     mixing beta               =       0.7000
     number of iterations used =            8  plain     mixing
     Exchange-correlation= SLA PZ NOGX NOGC
                           (   1   1   0   0   0   0   0)

     celldm(1)=   6.459084  celldm(2)=   0.000000  celldm(3)=  11.702750
     celldm(4)=   0.000000  celldm(5)=   0.000000  celldm(6)=   0.000000

     crystal axes: (cart. coord. in units of alat)
               a(1) = (   1.000000   0.000000   0.000000 )  
               a(2) = (  -0.500000   0.866025   0.000000 )  
               a(3) = (   0.000000   0.000000  11.702750 )  

     reciprocal axes: (cart. coord. in units 2 pi/alat)
               b(1) = (  1.000000  0.577350 -0.000000 )  
               b(2) = (  0.000000  1.154701  0.000000 )  
               b(3) = (  0.000000 -0.000000  0.085450 )  


     PseudoPot. # 1 for Nb read from file:
     ../Nb.pz-spn-kjpaw_psl.1.0.0.UPF
     MD5 check sum: 38c2e04b3cc915696ca8dc9f46a23270
     Pseudo is Projector augmented-wave + core cor, Zval = 13.0
     Generated using "atomic" code by A. Dal Corso v.6.2.2
     Shape of augmentation charge: PSQ
     Using radial grid of 1227 points,  6 beta functions with: 
                l(1) =   0
                l(2) =   0
                l(3) =   1
                l(4) =   1
                l(5) =   2
                l(6) =   2
     Q(r) pseudized with 0 coefficients 


     PseudoPot. # 2 for S  read from file:
     ../S.pz-n-kjpaw_psl.0.1.UPF
     MD5 check sum: c0b1682311cf098e03f7841691d9a679
     Pseudo is Projector augmented-wave + core cor, Zval =  6.0
     Generated using "atomic" code by A. Dal Corso v.5.0.2 svn rev. 9415
     Shape of augmentation charge: PSQ
     Using radial grid of 1151 points,  4 beta functions with: 
                l(1) =   0
                l(2) =   0
                l(3) =   1
                l(4) =   1
     Q(r) pseudized with 0 coefficients 


     atomic species   valence    mass     pseudopotential
        Nb            13.00    92.90600     Nb( 1.00)
        S              6.00    32.06500     S ( 1.00)

     12 Sym. Ops. (no inversion) found ( 6 have fractional translation)


                                    s                        frac. trans.

      isym =  1     identity                                     

 cryst.   s( 1) = (     1          0          0      )
                  (     0          1          0      )
                  (     0          0          1      )

 cart.    s( 1) = (  1.0000000  0.0000000  0.0000000 )
                  (  0.0000000  1.0000000  0.0000000 )
                  (  0.0000000  0.0000000  1.0000000 )


      isym =  2     180 deg rotation - cart. axis [0,1,0]        

 cryst.   s( 2) = (    -1          0          0      )    f =(  0.0000000 )
                  (     1          1          0      )       (  0.0000000 )
                  (     0          0         -1      )       (  0.5000000 )

 cart.    s( 2) = ( -1.0000000  0.0000000  0.0000000 )    f =(  0.0000000 )
                  (  0.0000000  1.0000000  0.0000000 )       (  0.0000000 )
                  (  0.0000000  0.0000000 -1.0000000 )       (  5.8513751 )


      isym =  3     120 deg rotation - cryst. axis [0,0,1]       

 cryst.   s( 3) = (     0          1          0      )
                  (    -1         -1          0      )
                  (     0          0          1      )

 cart.    s( 3) = ( -0.5000000 -0.8660254  0.0000000 )
                  (  0.8660254 -0.5000000  0.0000000 )
                  (  0.0000000  0.0000000  1.0000000 )


      isym =  4     120 deg rotation - cryst. axis [0,0,-1]      

 cryst.   s( 4) = (    -1         -1          0      )
                  (     1          0          0      )
                  (     0          0          1      )

 cart.    s( 4) = ( -0.5000000  0.8660254  0.0000000 )
                  ( -0.8660254 -0.5000000  0.0000000 )
                  (  0.0000000  0.0000000  1.0000000 )


      isym =  5     180 deg rotation - cryst. axis [1,-1,0]      

 cryst.   s( 5) = (     0         -1          0      )    f =(  0.0000000 )
                  (    -1          0          0      )       (  0.0000000 )
                  (     0          0         -1      )       (  0.5000000 )

 cart.    s( 5) = (  0.5000000 -0.8660254  0.0000000 )    f =(  0.0000000 )
                  ( -0.8660254 -0.5000000  0.0000000 )       (  0.0000000 )
                  (  0.0000000  0.0000000 -1.0000000 )       (  5.8513751 )


      isym =  6     180 deg rotation - cryst. axis [2,1,0]       

 cryst.   s( 6) = (     1          1          0      )    f =(  0.0000000 )
                  (     0         -1          0      )       (  0.0000000 )
                  (     0          0         -1      )       (  0.5000000 )

 cart.    s( 6) = (  0.5000000  0.8660254  0.0000000 )    f =( -0.0000000 )
                  (  0.8660254 -0.5000000  0.0000000 )       (  0.0000000 )
                  (  0.0000000  0.0000000 -1.0000000 )       (  5.8513751 )


      isym =  7     inv. 180 deg rotation - cart. axis [0,0,1]   

 cryst.   s( 7) = (     1          0          0      )    f =(  0.0000000 )
                  (     0          1          0      )       (  0.0000000 )
                  (     0          0         -1      )       (  0.5000000 )

 cart.    s( 7) = (  1.0000000  0.0000000  0.0000000 )    f =(  0.0000000 )
                  (  0.0000000  1.0000000  0.0000000 )       (  0.0000000 )
                  (  0.0000000  0.0000000 -1.0000000 )       (  5.8513751 )


      isym =  8     inv. 180 deg rotation - cart. axis [1,0,0]   

 cryst.   s( 8) = (    -1          0          0      )
                  (     1          1          0      )
                  (     0          0          1      )

 cart.    s( 8) = ( -1.0000000  0.0000000  0.0000000 )
                  (  0.0000000  1.0000000  0.0000000 )
                  (  0.0000000  0.0000000  1.0000000 )


      isym =  9     inv.  60 deg rotation - cryst. axis [0,0,1]  

 cryst.   s( 9) = (    -1         -1          0      )    f =(  0.0000000 )
                  (     1          0          0      )       (  0.0000000 )
                  (     0          0         -1      )       (  0.5000000 )

 cart.    s( 9) = ( -0.5000000  0.8660254  0.0000000 )    f =( -0.0000000 )
                  ( -0.8660254 -0.5000000  0.0000000 )       (  0.0000000 )
                  (  0.0000000  0.0000000 -1.0000000 )       (  5.8513751 )


      isym = 10     inv.  60 deg rotation - cryst. axis [0,0,-1] 

 cryst.   s(10) = (     0          1          0      )    f =(  0.0000000 )
                  (    -1         -1          0      )       (  0.0000000 )
                  (     0          0         -1      )       (  0.5000000 )

 cart.    s(10) = ( -0.5000000 -0.8660254  0.0000000 )    f =(  0.0000000 )
                  (  0.8660254 -0.5000000  0.0000000 )       (  0.0000000 )
                  (  0.0000000  0.0000000 -1.0000000 )       (  5.8513751 )


      isym = 11     inv. 180 deg rotation - cryst. axis [0,1,0]  

 cryst.   s(11) = (     1          1          0      )
                  (     0         -1          0      )
                  (     0          0          1      )

 cart.    s(11) = (  0.5000000  0.8660254  0.0000000 )
                  (  0.8660254 -0.5000000  0.0000000 )
                  (  0.0000000  0.0000000  1.0000000 )


      isym = 12     inv. 180 deg rotation - cryst. axis [1,1,0]  

 cryst.   s(12) = (     0         -1          0      )
                  (    -1          0          0      )
                  (     0          0          1      )

 cart.    s(12) = (  0.5000000 -0.8660254  0.0000000 )
                  ( -0.8660254 -0.5000000  0.0000000 )
                  (  0.0000000  0.0000000  1.0000000 )


     point group D_3h (-62m)
     there are  6 classes
     the character table:

       E     2C3   3C2   s_h   2S3   3s_v 
A'_1   1.00  1.00  1.00  1.00  1.00  1.00
A'_2   1.00  1.00 -1.00  1.00  1.00 -1.00
E'     2.00 -1.00  0.00  2.00 -1.00  0.00
A''1   1.00  1.00  1.00 -1.00 -1.00 -1.00
A''2   1.00  1.00 -1.00 -1.00 -1.00  1.00
E''    2.00 -1.00  0.00 -2.00  1.00  0.00

     the symmetry operations in each class and the name of the first element:

     E        1
          identity                                               
     2C3      3    4
          120 deg rotation - cryst. axis [0,0,1]                 
     3C2      2    6    5
          180 deg rotation - cart. axis [0,1,0]                  
     s_h      7
          inv. 180 deg rotation - cart. axis [0,0,1]             
     2S3      9   10
          inv.  60 deg rotation - cryst. axis [0,0,1]            
     3s_v     8   11   12
          inv. 180 deg rotation - cart. axis [1,0,0]             

   Cartesian axes

     site n.     atom                  positions (alat units)
         1           S   tau(   1) = (   0.0000000   0.5773503   4.3089526  )
         2           Nb  tau(   2) = (   0.0000000   0.0000000   2.9256875  )
         3           S   tau(   3) = (   0.0000000   0.5773503   1.5424225  )

   Crystallographic axes

     site n.     atom                  positions (cryst. coord.)
         1           S   tau(   1) = (  0.3333333  0.6666667  0.3682000  )
         2           Nb  tau(   2) = (  0.0000000  0.0000000  0.2500000  )
         3           S   tau(   3) = (  0.3333333  0.6666667  0.1318000  )

     number of k points=     4  Methfessel-Paxton smearing, width (Ry)=  0.0200
                       cart. coord. in units 2pi/alat
        k(    1) = (   0.0000000   0.0000000   0.0000000), wk =   0.1250000
        k(    2) = (   0.0000000   0.2886751   0.0000000), wk =   0.7500000
        k(    3) = (   0.0000000  -0.5773503   0.0000000), wk =   0.3750000
        k(    4) = (   0.2500000   0.4330127   0.0000000), wk =   0.7500000

                       cryst. coord.
        k(    1) = (   0.0000000   0.0000000   0.0000000), wk =   0.1250000
        k(    2) = (   0.0000000   0.2500000   0.0000000), wk =   0.7500000
        k(    3) = (   0.0000000  -0.5000000   0.0000000), wk =   0.3750000
        k(    4) = (   0.2500000   0.2500000   0.0000000), wk =   0.7500000

     Dense  grid:   369475 G-vectors     FFT dimensions: (  45,  45, 486)

     Smooth grid:    60767 G-vectors     FFT dimensions: (  24,  24, 270)

     Dynamical RAM for                 wfc:       1.45 MB

     Dynamical RAM for     wfc (w. buffer):       7.23 MB

     Dynamical RAM for           str. fact:       5.64 MB

     Dynamical RAM for           local pot:       0.00 MB

     Dynamical RAM for          nlocal pot:       1.97 MB

     Dynamical RAM for                qrad:       3.21 MB

     Dynamical RAM for          rho,v,vnew:      19.72 MB

     Dynamical RAM for               rhoin:       6.57 MB

     Dynamical RAM for            rho*nmix:      45.10 MB

     Dynamical RAM for           G-vectors:      10.80 MB

     Dynamical RAM for          h,s,v(r/c):       0.11 MB

     Dynamical RAM for          <psi|beta>:       0.01 MB

     Dynamical RAM for                 psi:       2.89 MB

     Dynamical RAM for                hpsi:       2.89 MB

     Dynamical RAM for                spsi:       2.89 MB

     Dynamical RAM for      wfcinit/wfcrot:       2.91 MB

     Dynamical RAM for           addusdens:     529.97 MB

     Estimated static dynamical RAM per process >     127.47 MB

     Estimated max dynamical RAM per process >     657.44 MB

     Estimated total dynamical RAM >       1.28 GB

     Initial potential from superposition of free atoms

     starting charge   24.99887, renormalised to   25.00000

     negative rho (up, down):  3.555E-04 0.000E+00
     Starting wfcs are   21 randomized atomic wfcs +    4 random wfcs
     Checking if some PAW data can be deallocated... 
       PAW data deallocated on    1 nodes for type:  1

     total cpu time spent up to now is        4.5 secs

     Self-consistent Calculation

     iteration #  1     ecut=    30.00 Ry     beta= 0.70
     Davidson diagonalization with overlap
     ethr =  1.00E-02,  avg # of iterations =  8.5

     negative rho (up, down):  4.109E-04 0.000E+00

     total cpu time spent up to now is        9.9 secs

     total energy              =    -451.64881809 Ry
     estimated scf accuracy    <       1.63111893 Ry

     iteration #  2     ecut=    30.00 Ry     beta= 0.70
     Davidson diagonalization with overlap
     ethr =  6.52E-03,  avg # of iterations =  4.8

     negative rho (up, down):  1.720E-03 0.000E+00

     total cpu time spent up to now is       15.4 secs

     total energy              =    -446.54144377 Ry
     estimated scf accuracy    <     198.47103601 Ry

     iteration #  3     ecut=    30.00 Ry     beta= 0.70
     Davidson diagonalization with overlap
     ethr =  6.52E-03,  avg # of iterations =  5.8

     negative rho (up, down):  1.032E-03 0.000E+00

     total cpu time spent up to now is       20.8 secs

     total energy              =    -452.65155269 Ry
     estimated scf accuracy    <       6.68001310 Ry

     iteration #  4     ecut=    30.00 Ry     beta= 0.70
     Davidson diagonalization with overlap
     ethr =  6.52E-03,  avg # of iterations =  2.0

     negative rho (up, down):  4.736E-04 0.000E+00

     total cpu time spent up to now is       25.5 secs

     total energy              =    -452.87513878 Ry
     estimated scf accuracy    <       3.14679458 Ry

     iteration #  5     ecut=    30.00 Ry     beta= 0.70
     Davidson diagonalization with overlap
     ethr =  6.52E-03,  avg # of iterations =  1.0

     negative rho (up, down):  6.039E-04 0.000E+00

     total cpu time spent up to now is       30.1 secs

     total energy              =    -452.95525294 Ry
     estimated scf accuracy    <       0.23981286 Ry

     iteration #  6     ecut=    30.00 Ry     beta= 0.70
     Davidson diagonalization with overlap
     ethr =  9.59E-04,  avg # of iterations =  3.8

     negative rho (up, down):  4.456E-04 0.000E+00

     total cpu time spent up to now is       34.9 secs

     total energy              =    -452.93762851 Ry
     estimated scf accuracy    <       0.22047212 Ry

     iteration #  7     ecut=    30.00 Ry     beta= 0.70
     Davidson diagonalization with overlap
     ethr =  8.82E-04,  avg # of iterations =  2.0

     negative rho (up, down):  4.448E-04 0.000E+00

     total cpu time spent up to now is       39.4 secs

     total energy              =    -452.97136958 Ry
     estimated scf accuracy    <       0.79164372 Ry

     iteration #  8     ecut=    30.00 Ry     beta= 0.70
     Davidson diagonalization with overlap
     ethr =  8.82E-04,  avg # of iterations =  2.8

     negative rho (up, down):  4.579E-04 0.000E+00

     total cpu time spent up to now is       44.1 secs

     total energy              =    -452.90156530 Ry
     estimated scf accuracy    <       1.22751025 Ry

     iteration #  9     ecut=    30.00 Ry     beta= 0.70
     Davidson diagonalization with overlap
     ethr =  8.82E-04,  avg # of iterations =  1.2

     negative rho (up, down):  5.013E-04 0.000E+00

     total cpu time spent up to now is       48.7 secs

     total energy              =    -452.95232355 Ry
     estimated scf accuracy    <       1.74568120 Ry

     iteration # 10     ecut=    30.00 Ry     beta= 0.70
     Davidson diagonalization with overlap
     ethr =  8.82E-04,  avg # of iterations =  1.0

     negative rho (up, down):  4.920E-04 0.000E+00

     total cpu time spent up to now is       53.2 secs

     total energy              =    -452.94011295 Ry
     estimated scf accuracy    <       0.53642083 Ry

     iteration # 11     ecut=    30.00 Ry     beta= 0.70
     Davidson diagonalization with overlap
     ethr =  8.82E-04,  avg # of iterations =  1.0

     negative rho (up, down):  4.503E-04 0.000E+00

     total cpu time spent up to now is       57.7 secs

     total energy              =    -452.94807985 Ry
     estimated scf accuracy    <       0.10076025 Ry

     iteration # 12     ecut=    30.00 Ry     beta= 0.70
     Davidson diagonalization with overlap
     ethr =  4.03E-04,  avg # of iterations =  2.5

     negative rho (up, down):  4.495E-04 0.000E+00

     total cpu time spent up to now is       62.4 secs

     total energy              =    -452.95010251 Ry
     estimated scf accuracy    <       0.04510507 Ry

     iteration # 13     ecut=    30.00 Ry     beta= 0.70
     Davidson diagonalization with overlap
     ethr =  1.80E-04,  avg # of iterations =  2.8

     negative rho (up, down):  4.489E-04 0.000E+00

     total cpu time spent up to now is       67.0 secs

     total energy              =    -452.95048913 Ry
     estimated scf accuracy    <       0.00023762 Ry

     iteration # 14     ecut=    30.00 Ry     beta= 0.70
     Davidson diagonalization with overlap
     ethr =  9.50E-07,  avg # of iterations =  7.0

     negative rho (up, down):  4.489E-04 0.000E+00

     total cpu time spent up to now is       72.0 secs

     total energy              =    -452.95049909 Ry
     estimated scf accuracy    <       0.00086432 Ry

     iteration # 15     ecut=    30.00 Ry     beta= 0.70
     Davidson diagonalization with overlap
     ethr =  9.50E-07,  avg # of iterations =  1.0

     negative rho (up, down):  4.489E-04 0.000E+00

     total cpu time spent up to now is       76.6 secs

     total energy              =    -452.95050074 Ry
     estimated scf accuracy    <       0.00012961 Ry

     iteration # 16     ecut=    30.00 Ry     beta= 0.70
     Davidson diagonalization with overlap
     ethr =  5.18E-07,  avg # of iterations =  1.0

     negative rho (up, down):  4.489E-04 0.000E+00

     total cpu time spent up to now is       81.2 secs

     total energy              =    -452.95050125 Ry
     estimated scf accuracy    <       0.00001610 Ry

     iteration # 17     ecut=    30.00 Ry     beta= 0.70
     Davidson diagonalization with overlap
     ethr =  6.44E-08,  avg # of iterations =  1.0

     negative rho (up, down):  4.488E-04 0.000E+00

     total cpu time spent up to now is       85.7 secs

     total energy              =    -452.95050093 Ry
     estimated scf accuracy    <       0.00001039 Ry

     iteration # 18     ecut=    30.00 Ry     beta= 0.70
     Davidson diagonalization with overlap
     ethr =  4.16E-08,  avg # of iterations =  1.0

     negative rho (up, down):  4.489E-04 0.000E+00

     total cpu time spent up to now is       90.3 secs

     total energy              =    -452.95050113 Ry
     estimated scf accuracy    <       0.00000240 Ry

     iteration # 19     ecut=    30.00 Ry     beta= 0.70
     Davidson diagonalization with overlap
     ethr =  9.60E-09,  avg # of iterations =  1.0

     negative rho (up, down):  4.489E-04 0.000E+00

     total cpu time spent up to now is       94.8 secs

     total energy              =    -452.95050102 Ry
     estimated scf accuracy    <       0.00000317 Ry

     iteration # 20     ecut=    30.00 Ry     beta= 0.70
     Davidson diagonalization with overlap
     ethr =  9.60E-09,  avg # of iterations =  1.0

     negative rho (up, down):  4.489E-04 0.000E+00

     total cpu time spent up to now is       99.3 secs

     End of self-consistent calculation

          k = 0.0000 0.0000 0.0000 (  7643 PWs)   bands (ev):

   -60.3463 -36.6914 -36.0350 -36.0350 -15.9249 -15.9249  -7.8886  -5.8839
    -5.8681  -4.8520  -4.2752  -4.2752  -3.2844  -3.2844  -3.1648  -3.1648
    -3.1646  -3.1646  -2.9904   1.4412   1.8445   2.2866   2.5245   2.5385
     3.0601

     occupation numbers 
     1.0000   1.0000   1.0000   1.0000   1.0000   1.0000   1.0000   1.0000
     1.0000   0.8750  -0.0226  -0.0226  -0.0000  -0.0000  -0.0000  -0.0000
    -0.0000  -0.0000  -0.0000  -0.0000  -0.0000  -0.0000  -0.0000  -0.0000
    -0.0000

          k = 0.0000 0.2887 0.0000 (  7612 PWs)   bands (ev):

   -60.3347 -36.6782 -36.1405 -36.0592 -15.4931 -15.4930  -6.6486  -5.4171
    -5.3910  -5.1902  -5.1895  -4.7243  -4.7157  -4.4797  -3.6020  -3.6005
    -3.4919  -3.3156  -0.9884   2.4140   2.9083   3.1513   3.4168   3.6081
     3.9627

     occupation numbers 
     1.0000   1.0000   1.0000   1.0000   1.0000   1.0000   1.0000   1.0008
     1.0012   1.0164   1.0165   0.5334   0.5066  -0.0037  -0.0000  -0.0000
    -0.0000  -0.0000  -0.0000  -0.0000  -0.0000  -0.0000  -0.0000  -0.0000
    -0.0000

          k = 0.0000-0.5774 0.0000 (  7568 PWs)   bands (ev):

   -60.3227 -36.6640 -36.2427 -36.0849 -14.9675 -14.9675  -6.8072  -6.8057
    -6.2255  -5.4345  -4.7517  -4.7131  -4.1156  -3.9755  -3.9745  -3.6882
    -2.6922  -2.0004   0.5565   0.8226   3.1857   3.1970   3.7941   3.9202
     4.5559

     occupation numbers 
     1.0000   1.0000   1.0000   1.0000   1.0000   1.0000   1.0000   1.0000
     1.0000   1.0006   0.6172   0.4986  -0.0040  -0.0004  -0.0004  -0.0000
    -0.0000  -0.0000  -0.0000  -0.0000  -0.0000  -0.0000  -0.0000  -0.0000
    -0.0000

          k = 0.2500 0.4330 0.0000 (  7560 PWs)   bands (ev):

   -60.3230 -36.6649 -36.2033 -36.1253 -14.9770 -14.9770  -6.2164  -6.2150
    -5.1688  -5.1518  -4.9720  -4.9551  -4.9548  -4.7161  -4.7120  -4.1903
    -4.1178  -1.1199   1.0310   1.9556   3.3108   3.7243   4.0463   4.4734
     4.8989

     occupation numbers 
     1.0000   1.0000   1.0000   1.0000   1.0000   1.0000   1.0000   1.0000
     1.0197   1.0226   1.0191   1.0092   1.0090   0.5078   0.4951  -0.0102
    -0.0041  -0.0000  -0.0000  -0.0000  -0.0000  -0.0000  -0.0000  -0.0000
    -0.0000

     the Fermi energy is    -4.7136 ev

!    total energy              =    -452.95050107 Ry

     total all-electron energy =     -9223.155012 Ry
     estimated scf accuracy    <          3.4E-10 Ry
     smearing contrib. (-TS)   =      -0.00519975 Ry
     internal energy E=F+TS    =    -452.94530132 Ry

     The total energy is F=E-TS. E is the sum of the following terms:
     one-electron contribution =   -1481.64777534 Ry
     hartree contribution      =     740.30720111 Ry
     xc contribution           =     -31.32618633 Ry
     ewald contribution        =     613.75036080 Ry
     one-center paw contrib.   =    -294.02890157 Ry
      -> PAW hartree energy AE =      80.13201826 Ry
      -> PAW hartree energy PS =     -79.65530293 Ry
      -> PAW xc energy AE      =    -275.45750517 Ry
      -> PAW xc energy PS      =      22.62301929 Ry
      -> total E_H with PAW    =     740.78391644 Ry
      -> total E_XC with PAW   =    -284.16067221 Ry

     convergence has been achieved in  20 iterations

     Writing output data file ./tmp/NbS2.save/

     init_run     :      3.13s CPU      3.46s WALL (       1 calls)
     electrons    :     84.34s CPU     94.90s WALL (       1 calls)

     Called by init_run:
     wfcinit      :      0.48s CPU      0.49s WALL (       1 calls)
     wfcinit:atom :      0.01s CPU      0.01s WALL (       4 calls)
     wfcinit:wfcr :      0.46s CPU      0.47s WALL (       4 calls)
     potinit      :      0.65s CPU      0.68s WALL (       1 calls)
     hinit0       :      0.98s CPU      1.02s WALL (       1 calls)

     Called by electrons:
     c_bands      :     25.08s CPU     25.40s WALL (      20 calls)
     sum_band     :     35.61s CPU     41.06s WALL (      20 calls)
     v_of_rho     :      1.75s CPU      1.79s WALL (      21 calls)
     v_h          :      0.98s CPU      1.00s WALL (      21 calls)
     v_xc         :      0.77s CPU      0.79s WALL (      21 calls)
     newd         :     18.68s CPU     23.57s WALL (      21 calls)
     PAW_pot      :      1.12s CPU      1.12s WALL (      21 calls)
     mix_rho      :      1.96s CPU      1.98s WALL (      20 calls)

     Called by c_bands:
     init_us_2    :      0.24s CPU      0.25s WALL (     164 calls)
     cegterg      :     24.58s CPU     24.88s WALL (      80 calls)

     Called by sum_band:
     sum_band:wei :      0.00s CPU      0.00s WALL (      20 calls)
     sum_band:loo :      5.02s CPU      5.05s WALL (      20 calls)
     sum_band:buf :      0.06s CPU      0.06s WALL (      80 calls)
     sum_band:ini :      0.12s CPU      0.12s WALL (      80 calls)
     sum_band:cal :      0.52s CPU      0.52s WALL (      80 calls)
     sum_band:bec :      0.00s CPU      0.00s WALL (      80 calls)
     addusdens    :     28.90s CPU     34.26s WALL (      20 calls)
     addusd:skk   :      0.06s CPU      0.07s WALL (      40 calls)
     addusd:dgemm :      7.55s CPU     11.93s WALL (      40 calls)
     addusd:qvan2 :     19.89s CPU     19.90s WALL (      40 calls)

     Called by *egterg:
     cdiaghg      :      0.22s CPU      0.22s WALL (     288 calls)
     cegterg:over :      1.56s CPU      1.57s WALL (     208 calls)
     cegterg:upda :      0.87s CPU      0.87s WALL (     208 calls)
     cegterg:last :      1.82s CPU      1.82s WALL (     119 calls)
     h_psi        :     18.59s CPU     18.88s WALL (     292 calls)
     s_psi        :      1.03s CPU      1.03s WALL (     292 calls)
     g_psi        :      0.04s CPU      0.04s WALL (     208 calls)

     Called by h_psi:
     h_psi:calbec :      1.27s CPU      1.29s WALL (     292 calls)
     vloc_psi     :     16.24s CPU     16.51s WALL (     292 calls)
     add_vuspsi   :      0.96s CPU      0.96s WALL (     292 calls)

     General routines
     calbec       :      1.79s CPU      1.81s WALL (     372 calls)
     fft          :      4.54s CPU      4.64s WALL (     124 calls)
     ffts         :      0.14s CPU      0.14s WALL (      41 calls)
     fftw         :     16.92s CPU     17.18s WALL (   11194 calls)
     interpolate  :      0.89s CPU      0.91s WALL (      21 calls)

     Parallel routines
     fft_scatt_xy :      3.28s CPU      3.31s WALL (   11359 calls)
     fft_scatt_yz :      2.70s CPU      2.80s WALL (   11359 calls)

     PAW routines
     PAW_pot      :      1.12s CPU      1.12s WALL (      21 calls)
     PAW_symme    :      0.01s CPU      0.01s WALL (      41 calls)

     PWSCF        :   1m28.52s CPU   1m39.55s WALL


   This run was terminated on:  15:19:13  10Jun2021            

=------------------------------------------------------------------------------=
   JOB DONE.
=------------------------------------------------------------------------------=
