
     Program PWSCF v.6.6 starts on 10Jun2021 at 15:14: 1 

     This program is part of the open-source Quantum ESPRESSO suite
     for quantum simulation of materials; please cite
         "P. Giannozzi et al., J. Phys.:Condens. Matter 21 395502 (2009);
         "P. Giannozzi et al., J. Phys.:Condens. Matter 29 465901 (2017);
          URL http://www.quantum-espresso.org", 
     in publications or presentations arising from this work. More details at
     http://www.quantum-espresso.org/quote

     Parallel version (MPI), running on     2 processors

     MPI processes distributed on     1 nodes
     R & G space division:  proc/nbgrp/npool/nimage =       2
     Fft bands division:     nmany     =       1
     Waiting for input...
     Reading input from standard input

     Current dimensions of program PWSCF are:
     Max number of different atomic species (ntypx) = 10
     Max number of k-points (npk) =  40000
     Max angular momentum in pseudopotentials (lmaxx) =  3
     file Nb.pz-spn-kjpaw_psl.1.0.0.UPF: wavefunction(s)  4S 4P 4D renormalized
     file S.pz-n-kjpaw_psl.0.1.UPF: wavefunction(s)  3P renormalized

     Subspace diagonalization in iterative solution of the eigenvalue problem:
     a serial algorithm will be used


     Parallelization info
     --------------------
     sticks:   dense  smooth     PW     G-vecs:    dense   smooth      PW
     Min         579     117     36               184729    16463    2916
     Max         580     118     37               184746    16470    2929
     Sum        1159     235     73               369475    32933    5845



     bravais-lattice index     =            4
     lattice parameter (alat)  =       6.4591  a.u.
     unit-cell volume          =    2731.0606 (a.u.)^3
     number of atoms/cell      =            3
     number of atomic types    =            2
     number of electrons       =        25.00
     number of Kohn-Sham states=           25
     kinetic-energy cutoff     =      20.0000  Ry
     charge density cutoff     =     400.0000  Ry
     convergence threshold     =      1.0E-08
     mixing beta               =       0.7000
     number of iterations used =            8  plain     mixing
     Exchange-correlation= SLA PZ NOGX NOGC
                           (   1   1   0   0   0   0   0)

     celldm(1)=   6.459084  celldm(2)=   0.000000  celldm(3)=  11.702750
     celldm(4)=   0.000000  celldm(5)=   0.000000  celldm(6)=   0.000000

     crystal axes: (cart. coord. in units of alat)
               a(1) = (   1.000000   0.000000   0.000000 )  
               a(2) = (  -0.500000   0.866025   0.000000 )  
               a(3) = (   0.000000   0.000000  11.702750 )  

     reciprocal axes: (cart. coord. in units 2 pi/alat)
               b(1) = (  1.000000  0.577350 -0.000000 )  
               b(2) = (  0.000000  1.154701  0.000000 )  
               b(3) = (  0.000000 -0.000000  0.085450 )  


     PseudoPot. # 1 for Nb read from file:
     ../Nb.pz-spn-kjpaw_psl.1.0.0.UPF
     MD5 check sum: 38c2e04b3cc915696ca8dc9f46a23270
     Pseudo is Projector augmented-wave + core cor, Zval = 13.0
     Generated using "atomic" code by A. Dal Corso v.6.2.2
     Shape of augmentation charge: PSQ
     Using radial grid of 1227 points,  6 beta functions with: 
                l(1) =   0
                l(2) =   0
                l(3) =   1
                l(4) =   1
                l(5) =   2
                l(6) =   2
     Q(r) pseudized with 0 coefficients 


     PseudoPot. # 2 for S  read from file:
     ../S.pz-n-kjpaw_psl.0.1.UPF
     MD5 check sum: c0b1682311cf098e03f7841691d9a679
     Pseudo is Projector augmented-wave + core cor, Zval =  6.0
     Generated using "atomic" code by A. Dal Corso v.5.0.2 svn rev. 9415
     Shape of augmentation charge: PSQ
     Using radial grid of 1151 points,  4 beta functions with: 
                l(1) =   0
                l(2) =   0
                l(3) =   1
                l(4) =   1
     Q(r) pseudized with 0 coefficients 


     atomic species   valence    mass     pseudopotential
        Nb            13.00    92.90600     Nb( 1.00)
        S              6.00    32.06500     S ( 1.00)

     12 Sym. Ops. (no inversion) found ( 6 have fractional translation)


                                    s                        frac. trans.

      isym =  1     identity                                     

 cryst.   s( 1) = (     1          0          0      )
                  (     0          1          0      )
                  (     0          0          1      )

 cart.    s( 1) = (  1.0000000  0.0000000  0.0000000 )
                  (  0.0000000  1.0000000  0.0000000 )
                  (  0.0000000  0.0000000  1.0000000 )


      isym =  2     180 deg rotation - cart. axis [0,1,0]        

 cryst.   s( 2) = (    -1          0          0      )    f =(  0.0000000 )
                  (     1          1          0      )       (  0.0000000 )
                  (     0          0         -1      )       (  0.5000000 )

 cart.    s( 2) = ( -1.0000000  0.0000000  0.0000000 )    f =(  0.0000000 )
                  (  0.0000000  1.0000000  0.0000000 )       (  0.0000000 )
                  (  0.0000000  0.0000000 -1.0000000 )       (  5.8513751 )


      isym =  3     120 deg rotation - cryst. axis [0,0,1]       

 cryst.   s( 3) = (     0          1          0      )
                  (    -1         -1          0      )
                  (     0          0          1      )

 cart.    s( 3) = ( -0.5000000 -0.8660254  0.0000000 )
                  (  0.8660254 -0.5000000  0.0000000 )
                  (  0.0000000  0.0000000  1.0000000 )


      isym =  4     120 deg rotation - cryst. axis [0,0,-1]      

 cryst.   s( 4) = (    -1         -1          0      )
                  (     1          0          0      )
                  (     0          0          1      )

 cart.    s( 4) = ( -0.5000000  0.8660254  0.0000000 )
                  ( -0.8660254 -0.5000000  0.0000000 )
                  (  0.0000000  0.0000000  1.0000000 )


      isym =  5     180 deg rotation - cryst. axis [1,-1,0]      

 cryst.   s( 5) = (     0         -1          0      )    f =(  0.0000000 )
                  (    -1          0          0      )       (  0.0000000 )
                  (     0          0         -1      )       (  0.5000000 )

 cart.    s( 5) = (  0.5000000 -0.8660254  0.0000000 )    f =(  0.0000000 )
                  ( -0.8660254 -0.5000000  0.0000000 )       (  0.0000000 )
                  (  0.0000000  0.0000000 -1.0000000 )       (  5.8513751 )


      isym =  6     180 deg rotation - cryst. axis [2,1,0]       

 cryst.   s( 6) = (     1          1          0      )    f =(  0.0000000 )
                  (     0         -1          0      )       (  0.0000000 )
                  (     0          0         -1      )       (  0.5000000 )

 cart.    s( 6) = (  0.5000000  0.8660254  0.0000000 )    f =( -0.0000000 )
                  (  0.8660254 -0.5000000  0.0000000 )       (  0.0000000 )
                  (  0.0000000  0.0000000 -1.0000000 )       (  5.8513751 )


      isym =  7     inv. 180 deg rotation - cart. axis [0,0,1]   

 cryst.   s( 7) = (     1          0          0      )    f =(  0.0000000 )
                  (     0          1          0      )       (  0.0000000 )
                  (     0          0         -1      )       (  0.5000000 )

 cart.    s( 7) = (  1.0000000  0.0000000  0.0000000 )    f =(  0.0000000 )
                  (  0.0000000  1.0000000  0.0000000 )       (  0.0000000 )
                  (  0.0000000  0.0000000 -1.0000000 )       (  5.8513751 )


      isym =  8     inv. 180 deg rotation - cart. axis [1,0,0]   

 cryst.   s( 8) = (    -1          0          0      )
                  (     1          1          0      )
                  (     0          0          1      )

 cart.    s( 8) = ( -1.0000000  0.0000000  0.0000000 )
                  (  0.0000000  1.0000000  0.0000000 )
                  (  0.0000000  0.0000000  1.0000000 )


      isym =  9     inv.  60 deg rotation - cryst. axis [0,0,1]  

 cryst.   s( 9) = (    -1         -1          0      )    f =(  0.0000000 )
                  (     1          0          0      )       (  0.0000000 )
                  (     0          0         -1      )       (  0.5000000 )

 cart.    s( 9) = ( -0.5000000  0.8660254  0.0000000 )    f =( -0.0000000 )
                  ( -0.8660254 -0.5000000  0.0000000 )       (  0.0000000 )
                  (  0.0000000  0.0000000 -1.0000000 )       (  5.8513751 )


      isym = 10     inv.  60 deg rotation - cryst. axis [0,0,-1] 

 cryst.   s(10) = (     0          1          0      )    f =(  0.0000000 )
                  (    -1         -1          0      )       (  0.0000000 )
                  (     0          0         -1      )       (  0.5000000 )

 cart.    s(10) = ( -0.5000000 -0.8660254  0.0000000 )    f =(  0.0000000 )
                  (  0.8660254 -0.5000000  0.0000000 )       (  0.0000000 )
                  (  0.0000000  0.0000000 -1.0000000 )       (  5.8513751 )


      isym = 11     inv. 180 deg rotation - cryst. axis [0,1,0]  

 cryst.   s(11) = (     1          1          0      )
                  (     0         -1          0      )
                  (     0          0          1      )

 cart.    s(11) = (  0.5000000  0.8660254  0.0000000 )
                  (  0.8660254 -0.5000000  0.0000000 )
                  (  0.0000000  0.0000000  1.0000000 )


      isym = 12     inv. 180 deg rotation - cryst. axis [1,1,0]  

 cryst.   s(12) = (     0         -1          0      )
                  (    -1          0          0      )
                  (     0          0          1      )

 cart.    s(12) = (  0.5000000 -0.8660254  0.0000000 )
                  ( -0.8660254 -0.5000000  0.0000000 )
                  (  0.0000000  0.0000000  1.0000000 )


     point group D_3h (-62m)
     there are  6 classes
     the character table:

       E     2C3   3C2   s_h   2S3   3s_v 
A'_1   1.00  1.00  1.00  1.00  1.00  1.00
A'_2   1.00  1.00 -1.00  1.00  1.00 -1.00
E'     2.00 -1.00  0.00  2.00 -1.00  0.00
A''1   1.00  1.00  1.00 -1.00 -1.00 -1.00
A''2   1.00  1.00 -1.00 -1.00 -1.00  1.00
E''    2.00 -1.00  0.00 -2.00  1.00  0.00

     the symmetry operations in each class and the name of the first element:

     E        1
          identity                                               
     2C3      3    4
          120 deg rotation - cryst. axis [0,0,1]                 
     3C2      2    6    5
          180 deg rotation - cart. axis [0,1,0]                  
     s_h      7
          inv. 180 deg rotation - cart. axis [0,0,1]             
     2S3      9   10
          inv.  60 deg rotation - cryst. axis [0,0,1]            
     3s_v     8   11   12
          inv. 180 deg rotation - cart. axis [1,0,0]             

   Cartesian axes

     site n.     atom                  positions (alat units)
         1           S   tau(   1) = (   0.0000000   0.5773503   4.3089526  )
         2           Nb  tau(   2) = (   0.0000000   0.0000000   2.9256875  )
         3           S   tau(   3) = (   0.0000000   0.5773503   1.5424225  )

   Crystallographic axes

     site n.     atom                  positions (cryst. coord.)
         1           S   tau(   1) = (  0.3333333  0.6666667  0.3682000  )
         2           Nb  tau(   2) = (  0.0000000  0.0000000  0.2500000  )
         3           S   tau(   3) = (  0.3333333  0.6666667  0.1318000  )

     number of k points=     4  Methfessel-Paxton smearing, width (Ry)=  0.0200
                       cart. coord. in units 2pi/alat
        k(    1) = (   0.0000000   0.0000000   0.0000000), wk =   0.1250000
        k(    2) = (   0.0000000   0.2886751   0.0000000), wk =   0.7500000
        k(    3) = (   0.0000000  -0.5773503   0.0000000), wk =   0.3750000
        k(    4) = (   0.2500000   0.4330127   0.0000000), wk =   0.7500000

                       cryst. coord.
        k(    1) = (   0.0000000   0.0000000   0.0000000), wk =   0.1250000
        k(    2) = (   0.0000000   0.2500000   0.0000000), wk =   0.7500000
        k(    3) = (   0.0000000  -0.5000000   0.0000000), wk =   0.3750000
        k(    4) = (   0.2500000   0.2500000   0.0000000), wk =   0.7500000

     Dense  grid:   369475 G-vectors     FFT dimensions: (  45,  45, 486)

     Smooth grid:    32933 G-vectors     FFT dimensions: (  20,  20, 216)

     Dynamical RAM for                 wfc:       0.79 MB

     Dynamical RAM for     wfc (w. buffer):       3.93 MB

     Dynamical RAM for           str. fact:       5.64 MB

     Dynamical RAM for           local pot:       0.00 MB

     Dynamical RAM for          nlocal pot:       1.07 MB

     Dynamical RAM for                qrad:       3.21 MB

     Dynamical RAM for          rho,v,vnew:      19.72 MB

     Dynamical RAM for               rhoin:       6.57 MB

     Dynamical RAM for            rho*nmix:      45.10 MB

     Dynamical RAM for           G-vectors:      10.70 MB

     Dynamical RAM for          h,s,v(r/c):       0.11 MB

     Dynamical RAM for          <psi|beta>:       0.01 MB

     Dynamical RAM for                 psi:       1.57 MB

     Dynamical RAM for                hpsi:       1.57 MB

     Dynamical RAM for                spsi:       1.57 MB

     Dynamical RAM for      wfcinit/wfcrot:       1.59 MB

     Dynamical RAM for           addusdens:     529.97 MB

     Estimated static dynamical RAM per process >     123.17 MB

     Estimated max dynamical RAM per process >     653.15 MB

     Estimated total dynamical RAM >       1.28 GB

     Initial potential from superposition of free atoms

     starting charge   24.99887, renormalised to   25.00000

     negative rho (up, down):  3.555E-04 0.000E+00
     Starting wfcs are   21 randomized atomic wfcs +    4 random wfcs
     Checking if some PAW data can be deallocated... 
       PAW data deallocated on    1 nodes for type:  1

     total cpu time spent up to now is        4.2 secs

     Self-consistent Calculation

     iteration #  1     ecut=    20.00 Ry     beta= 0.70
     Davidson diagonalization with overlap
     ethr =  1.00E-02,  avg # of iterations =  9.5

     negative rho (up, down):  3.131E-04 0.000E+00

     total cpu time spent up to now is        8.3 secs

     total energy              =    -449.53032489 Ry
     estimated scf accuracy    <       3.57988311 Ry

     iteration #  2     ecut=    20.00 Ry     beta= 0.70
     Davidson diagonalization with overlap
     ethr =  1.00E-02,  avg # of iterations =  5.5

     negative rho (up, down):  1.792E-02 0.000E+00

     total cpu time spent up to now is       12.6 secs

     total energy              =    -447.31905253 Ry
     estimated scf accuracy    <     216.72676968 Ry

     iteration #  3     ecut=    20.00 Ry     beta= 0.70
     Davidson diagonalization with overlap
     ethr =  1.00E-02,  avg # of iterations =  6.2

     negative rho (up, down):  2.187E-02 0.000E+00

     total cpu time spent up to now is       17.0 secs

     total energy              =    -450.24289665 Ry
     estimated scf accuracy    <      40.69926216 Ry

     iteration #  4     ecut=    20.00 Ry     beta= 0.70
     Davidson diagonalization with overlap
     ethr =  1.00E-02,  avg # of iterations =  5.0

     negative rho (up, down):  6.136E-03 0.000E+00

     total cpu time spent up to now is       20.9 secs

     total energy              =    -452.10207623 Ry
     estimated scf accuracy    <      18.33171359 Ry

     iteration #  5     ecut=    20.00 Ry     beta= 0.70
     Davidson diagonalization with overlap
     ethr =  1.00E-02,  avg # of iterations =  1.8

     negative rho (up, down):  4.065E-03 0.000E+00

     total cpu time spent up to now is       24.7 secs

     total energy              =    -452.53874814 Ry
     estimated scf accuracy    <       0.30579707 Ry

     iteration #  6     ecut=    20.00 Ry     beta= 0.70
     Davidson diagonalization with overlap
     ethr =  1.22E-03,  avg # of iterations =  3.5

     negative rho (up, down):  3.775E-03 0.000E+00

     total cpu time spent up to now is       28.7 secs

     total energy              =    -452.45592069 Ry
     estimated scf accuracy    <       1.59662985 Ry

     iteration #  7     ecut=    20.00 Ry     beta= 0.70
     Davidson diagonalization with overlap
     ethr =  1.22E-03,  avg # of iterations =  1.5

     negative rho (up, down):  7.694E-03 0.000E+00

     total cpu time spent up to now is       32.9 secs

     total energy              =    -452.52263304 Ry
     estimated scf accuracy    <       1.14313564 Ry

     iteration #  8     ecut=    20.00 Ry     beta= 0.70
     Davidson diagonalization with overlap
     ethr =  1.22E-03,  avg # of iterations =  1.0

     negative rho (up, down):  7.772E-03 0.000E+00

     total cpu time spent up to now is       36.9 secs

     total energy              =    -452.53925542 Ry
     estimated scf accuracy    <       0.50689475 Ry

     iteration #  9     ecut=    20.00 Ry     beta= 0.70
     Davidson diagonalization with overlap
     ethr =  1.22E-03,  avg # of iterations =  1.5

     negative rho (up, down):  6.742E-03 0.000E+00

     total cpu time spent up to now is       40.7 secs

     total energy              =    -452.54777826 Ry
     estimated scf accuracy    <       1.16866225 Ry

     iteration # 10     ecut=    20.00 Ry     beta= 0.70
     Davidson diagonalization with overlap
     ethr =  1.22E-03,  avg # of iterations =  1.0

     negative rho (up, down):  5.639E-03 0.000E+00

     total cpu time spent up to now is       44.5 secs

     total energy              =    -452.52509738 Ry
     estimated scf accuracy    <       1.19502251 Ry

     iteration # 11     ecut=    20.00 Ry     beta= 0.70
     Davidson diagonalization with overlap
     ethr =  1.22E-03,  avg # of iterations =  1.0

     negative rho (up, down):  3.572E-03 0.000E+00

     total cpu time spent up to now is       48.3 secs

     total energy              =    -452.48987168 Ry
     estimated scf accuracy    <       0.86632289 Ry

     iteration # 12     ecut=    20.00 Ry     beta= 0.70
     Davidson diagonalization with overlap
     ethr =  1.22E-03,  avg # of iterations =  1.0

     negative rho (up, down):  1.734E-03 0.000E+00

     total cpu time spent up to now is       52.0 secs

     total energy              =    -452.50737881 Ry
     estimated scf accuracy    <       0.25639082 Ry

     iteration # 13     ecut=    20.00 Ry     beta= 0.70
     Davidson diagonalization with overlap
     ethr =  1.03E-03,  avg # of iterations =  1.0

     negative rho (up, down):  1.821E-03 0.000E+00

     total cpu time spent up to now is       55.9 secs

     total energy              =    -452.51179132 Ry
     estimated scf accuracy    <       0.01128640 Ry

     iteration # 14     ecut=    20.00 Ry     beta= 0.70
     Davidson diagonalization with overlap
     ethr =  4.51E-05,  avg # of iterations =  4.2

     negative rho (up, down):  1.847E-03 0.000E+00

     total cpu time spent up to now is       59.9 secs

     total energy              =    -452.51066188 Ry
     estimated scf accuracy    <       0.22603819 Ry

     iteration # 15     ecut=    20.00 Ry     beta= 0.70
     Davidson diagonalization with overlap
     ethr =  4.51E-05,  avg # of iterations =  1.0

     negative rho (up, down):  1.039E-03 0.000E+00

     total cpu time spent up to now is       64.0 secs

     total energy              =    -452.50590579 Ry
     estimated scf accuracy    <       0.07914229 Ry

     iteration # 16     ecut=    20.00 Ry     beta= 0.70
     Davidson diagonalization with overlap
     ethr =  4.51E-05,  avg # of iterations =  1.0

     negative rho (up, down):  5.657E-04 0.000E+00

     total cpu time spent up to now is       68.1 secs

     total energy              =    -452.50781445 Ry
     estimated scf accuracy    <       0.28056153 Ry

     iteration # 17     ecut=    20.00 Ry     beta= 0.70
     Davidson diagonalization with overlap
     ethr =  4.51E-05,  avg # of iterations =  1.0

     negative rho (up, down):  4.684E-04 0.000E+00

     total cpu time spent up to now is       72.0 secs

     total energy              =    -452.51009929 Ry
     estimated scf accuracy    <       0.00595361 Ry

     iteration # 18     ecut=    20.00 Ry     beta= 0.70
     Davidson diagonalization with overlap
     ethr =  2.38E-05,  avg # of iterations =  1.0

     negative rho (up, down):  3.980E-04 0.000E+00

     total cpu time spent up to now is       76.1 secs

     total energy              =    -452.50997743 Ry
     estimated scf accuracy    <       0.00280093 Ry

     iteration # 19     ecut=    20.00 Ry     beta= 0.70
     Davidson diagonalization with overlap
     ethr =  1.12E-05,  avg # of iterations =  1.0

     negative rho (up, down):  3.044E-04 0.000E+00

     total cpu time spent up to now is       80.1 secs

     total energy              =    -452.50992754 Ry
     estimated scf accuracy    <       0.00624679 Ry

     iteration # 20     ecut=    20.00 Ry     beta= 0.70
     Davidson diagonalization with overlap
     ethr =  1.12E-05,  avg # of iterations =  1.0

     negative rho (up, down):  2.822E-04 0.000E+00

     total cpu time spent up to now is       84.1 secs

     total energy              =    -452.50993885 Ry
     estimated scf accuracy    <       0.00105230 Ry

     iteration # 21     ecut=    20.00 Ry     beta= 0.70
     Davidson diagonalization with overlap
     ethr =  4.21E-06,  avg # of iterations =  1.0

     negative rho (up, down):  2.752E-04 0.000E+00

     total cpu time spent up to now is       88.0 secs

     total energy              =    -452.50994977 Ry
     estimated scf accuracy    <       0.00000440 Ry

     iteration # 22     ecut=    20.00 Ry     beta= 0.70
     Davidson diagonalization with overlap
     ethr =  1.76E-08,  avg # of iterations =  2.0

     negative rho (up, down):  2.733E-04 0.000E+00

     total cpu time spent up to now is       91.9 secs

     total energy              =    -452.50994991 Ry
     estimated scf accuracy    <       0.00000156 Ry

     iteration # 23     ecut=    20.00 Ry     beta= 0.70
     Davidson diagonalization with overlap
     ethr =  6.26E-09,  avg # of iterations =  1.0

     negative rho (up, down):  2.725E-04 0.000E+00

     total cpu time spent up to now is       95.8 secs

     total energy              =    -452.50994989 Ry
     estimated scf accuracy    <       0.00000039 Ry

     iteration # 24     ecut=    20.00 Ry     beta= 0.70
     Davidson diagonalization with overlap
     ethr =  1.57E-09,  avg # of iterations =  1.2

     negative rho (up, down):  2.723E-04 0.000E+00

     total cpu time spent up to now is       99.6 secs

     End of self-consistent calculation

          k = 0.0000 0.0000 0.0000 (  4133 PWs)   bands (ev):

   -61.5041 -37.3401 -36.6317 -36.6317 -15.9287 -15.9286  -7.9805  -5.8850
    -5.8713  -4.8451  -4.1929  -4.1929  -3.1912  -3.1912  -3.1675  -3.1675
    -3.1658  -3.1658  -3.0484   1.4516   1.8412   2.3079   2.5432   2.5527
     3.0771

     occupation numbers 
     1.0000   1.0000   1.0000   1.0000   1.0000   1.0000   1.0000   1.0000
     1.0000   0.8596  -0.0104  -0.0104  -0.0000  -0.0000  -0.0000  -0.0000
    -0.0000  -0.0000  -0.0000  -0.0000  -0.0000  -0.0000  -0.0000  -0.0000
    -0.0000

          k = 0.0000 0.2887 0.0000 (  4176 PWs)   bands (ev):

   -61.5004 -37.3178 -36.7605 -36.7079 -15.4970 -15.4970  -6.7279  -5.4193
    -5.3944  -5.1927  -5.1919  -4.7447  -4.6975  -4.4755  -3.6038  -3.6030
    -3.4097  -3.2416  -0.9931   2.4246   2.9103   3.1597   3.4401   3.6286
     3.9831

     occupation numbers 
     1.0000   1.0000   1.0000   1.0000   1.0000   1.0000   1.0000   1.0008
     1.0012   1.0161   1.0162   0.5944   0.4485  -0.0072  -0.0000  -0.0000
    -0.0000  -0.0000  -0.0000  -0.0000  -0.0000  -0.0000  -0.0000  -0.0000
    -0.0000

          k = 0.0000-0.5774 0.0000 (  4108 PWs)   bands (ev):

   -61.4782 -37.2903 -36.7747 -36.7079 -14.9717 -14.9717  -6.8100  -6.8084
    -6.2431  -5.4038  -4.7539  -4.7137  -4.0631  -3.9781  -3.9773  -3.5890
    -2.7609  -1.7615   0.6347   0.7659   3.2369   3.2402   3.8501   3.9831
     4.6404

     occupation numbers 
     1.0000   1.0000   1.0000   1.0000   1.0000   1.0000   1.0000   1.0000
     1.0000   1.0010   0.6222   0.4987  -0.0018  -0.0004  -0.0004  -0.0000
    -0.0000  -0.0000  -0.0000  -0.0000  -0.0000  -0.0000  -0.0000  -0.0000
    -0.0000

          k = 0.2500 0.4330 0.0000 (  4103 PWs)   bands (ev):

   -61.4780 -37.3109 -36.7618 -36.7009 -14.9812 -14.9812  -6.2189  -6.2174
    -5.1478  -5.1294  -4.9829  -4.9572  -4.9562  -4.7113  -4.7097  -4.1281
    -4.0741  -0.9204   1.0030   1.8949   3.3574   3.7662   4.0889   4.4968
     4.9182

     occupation numbers 
     1.0000   1.0000   1.0000   1.0000   1.0000   1.0000   1.0000   1.0000
     1.0234   1.0265   1.0238   1.0102   1.0095   0.4913   0.4864  -0.0047
    -0.0022  -0.0000  -0.0000  -0.0000  -0.0000  -0.0000  -0.0000  -0.0000
    -0.0000

     the Fermi energy is    -4.7141 ev

!    total energy              =    -452.50994992 Ry

     total all-electron energy =     -9222.714461 Ry
     estimated scf accuracy    <          1.0E-09 Ry
     smearing contrib. (-TS)   =      -0.00518938 Ry
     internal energy E=F+TS    =    -452.50476054 Ry

     The total energy is F=E-TS. E is the sum of the following terms:
     one-electron contribution =   -1480.74399631 Ry
     hartree contribution      =     739.53408465 Ry
     xc contribution           =     -31.19494454 Ry
     ewald contribution        =     613.75036080 Ry
     one-center paw contrib.   =    -293.85026514 Ry
      -> PAW hartree energy AE =      84.82469026 Ry
      -> PAW hartree energy PS =     -84.43809368 Ry
      -> PAW xc energy AE      =    -275.50095631 Ry
      -> PAW xc energy PS      =      22.93596474 Ry
      -> total E_H with PAW    =     739.92068123 Ry
      -> total E_XC with PAW   =    -283.75993611 Ry

     convergence has been achieved in  24 iterations

     Writing output data file ./tmp/NbS2.save/

     init_run     :      2.77s CPU      3.11s WALL (       1 calls)
     electrons    :     82.69s CPU     95.54s WALL (       1 calls)

     Called by init_run:
     wfcinit      :      0.21s CPU      0.21s WALL (       1 calls)
     wfcinit:atom :      0.00s CPU      0.00s WALL (       4 calls)
     wfcinit:wfcr :      0.20s CPU      0.20s WALL (       4 calls)
     potinit      :      0.66s CPU      0.69s WALL (       1 calls)
     hinit0       :      0.95s CPU      0.97s WALL (       1 calls)

     Called by electrons:
     c_bands      :     12.89s CPU     13.07s WALL (      24 calls)
     sum_band     :     40.56s CPU     47.24s WALL (      24 calls)
     v_of_rho     :      2.02s CPU      2.37s WALL (      25 calls)
     v_h          :      1.14s CPU      1.36s WALL (      25 calls)
     v_xc         :      0.87s CPU      1.01s WALL (      25 calls)
     newd         :     23.29s CPU     28.95s WALL (      25 calls)
     PAW_pot      :      1.33s CPU      1.34s WALL (      25 calls)
     mix_rho      :      2.27s CPU      2.33s WALL (      24 calls)

     Called by c_bands:
     init_us_2    :      0.15s CPU      0.16s WALL (     196 calls)
     cegterg      :     12.57s CPU     12.73s WALL (      96 calls)

     Called by sum_band:
     sum_band:wei :      0.00s CPU      0.00s WALL (      24 calls)
     sum_band:loo :      2.32s CPU      2.35s WALL (      24 calls)
     sum_band:buf :      0.03s CPU      0.04s WALL (      96 calls)
     sum_band:ini :      0.07s CPU      0.07s WALL (      96 calls)
     sum_band:cal :      0.29s CPU      0.30s WALL (      96 calls)
     sum_band:bec :      0.00s CPU      0.00s WALL (      96 calls)
     addusdens    :     36.35s CPU     42.91s WALL (      24 calls)
     addusd:skk   :      0.08s CPU      0.09s WALL (      48 calls)
     addusd:dgemm :      9.34s CPU     14.69s WALL (      48 calls)
     addusd:qvan2 :     25.27s CPU     25.28s WALL (      48 calls)

     Called by *egterg:
     cdiaghg      :      0.23s CPU      0.23s WALL (     316 calls)
     cegterg:over :      0.95s CPU      0.96s WALL (     220 calls)
     cegterg:upda :      0.45s CPU      0.45s WALL (     220 calls)
     cegterg:last :      0.88s CPU      0.89s WALL (     146 calls)
     h_psi        :      9.13s CPU      9.28s WALL (     320 calls)
     s_psi        :      0.51s CPU      0.51s WALL (     320 calls)
     g_psi        :      0.03s CPU      0.03s WALL (     220 calls)

     Called by h_psi:
     h_psi:calbec :      0.73s CPU      0.74s WALL (     320 calls)
     vloc_psi     :      7.85s CPU      7.98s WALL (     320 calls)
     add_vuspsi   :      0.50s CPU      0.50s WALL (     320 calls)

     General routines
     calbec       :      1.02s CPU      1.03s WALL (     416 calls)
     fft          :      5.39s CPU      5.73s WALL (     148 calls)
     ffts         :      0.07s CPU      0.08s WALL (      49 calls)
     fftw         :      8.61s CPU      8.75s WALL (   13478 calls)
     interpolate  :      0.95s CPU      1.10s WALL (      25 calls)

     Parallel routines
     fft_scatt_xy :      1.59s CPU      1.63s WALL (   13675 calls)
     fft_scatt_yz :      2.14s CPU      2.33s WALL (   13675 calls)

     PAW routines
     PAW_pot      :      1.33s CPU      1.34s WALL (      25 calls)
     PAW_symme    :      0.01s CPU      0.01s WALL (      49 calls)

     PWSCF        :   1m26.54s CPU   1m39.86s WALL


   This run was terminated on:  15:15:41  10Jun2021            

=------------------------------------------------------------------------------=
   JOB DONE.
=------------------------------------------------------------------------------=
