
     Program PWSCF v.6.6 starts on 10Jun2021 at 15:19:14 

     This program is part of the open-source Quantum ESPRESSO suite
     for quantum simulation of materials; please cite
         "P. Giannozzi et al., J. Phys.:Condens. Matter 21 395502 (2009);
         "P. Giannozzi et al., J. Phys.:Condens. Matter 29 465901 (2017);
          URL http://www.quantum-espresso.org", 
     in publications or presentations arising from this work. More details at
     http://www.quantum-espresso.org/quote

     Parallel version (MPI), running on     2 processors

     MPI processes distributed on     1 nodes
     R & G space division:  proc/nbgrp/npool/nimage =       2
     Fft bands division:     nmany     =       1
     Waiting for input...
     Reading input from standard input

     Current dimensions of program PWSCF are:
     Max number of different atomic species (ntypx) = 10
     Max number of k-points (npk) =  40000
     Max angular momentum in pseudopotentials (lmaxx) =  3
     file Nb.pz-spn-kjpaw_psl.1.0.0.UPF: wavefunction(s)  4S 4P 4D renormalized
     file S.pz-n-kjpaw_psl.0.1.UPF: wavefunction(s)  3P renormalized

     Subspace diagonalization in iterative solution of the eigenvalue problem:
     a serial algorithm will be used


     Parallelization info
     --------------------
     sticks:   dense  smooth     PW     G-vecs:    dense   smooth      PW
     Min         579     198     60               184729    38040    6318
     Max         580     199     61               184746    38061    6341
     Sum        1159     397    121               369475    76101   12659



     bravais-lattice index     =            4
     lattice parameter (alat)  =       6.4591  a.u.
     unit-cell volume          =    2731.0606 (a.u.)^3
     number of atoms/cell      =            3
     number of atomic types    =            2
     number of electrons       =        25.00
     number of Kohn-Sham states=           25
     kinetic-energy cutoff     =      35.0000  Ry
     charge density cutoff     =     400.0000  Ry
     convergence threshold     =      1.0E-08
     mixing beta               =       0.7000
     number of iterations used =            8  plain     mixing
     Exchange-correlation= SLA PZ NOGX NOGC
                           (   1   1   0   0   0   0   0)

     celldm(1)=   6.459084  celldm(2)=   0.000000  celldm(3)=  11.702750
     celldm(4)=   0.000000  celldm(5)=   0.000000  celldm(6)=   0.000000

     crystal axes: (cart. coord. in units of alat)
               a(1) = (   1.000000   0.000000   0.000000 )  
               a(2) = (  -0.500000   0.866025   0.000000 )  
               a(3) = (   0.000000   0.000000  11.702750 )  

     reciprocal axes: (cart. coord. in units 2 pi/alat)
               b(1) = (  1.000000  0.577350 -0.000000 )  
               b(2) = (  0.000000  1.154701  0.000000 )  
               b(3) = (  0.000000 -0.000000  0.085450 )  


     PseudoPot. # 1 for Nb read from file:
     ../Nb.pz-spn-kjpaw_psl.1.0.0.UPF
     MD5 check sum: 38c2e04b3cc915696ca8dc9f46a23270
     Pseudo is Projector augmented-wave + core cor, Zval = 13.0
     Generated using "atomic" code by A. Dal Corso v.6.2.2
     Shape of augmentation charge: PSQ
     Using radial grid of 1227 points,  6 beta functions with: 
                l(1) =   0
                l(2) =   0
                l(3) =   1
                l(4) =   1
                l(5) =   2
                l(6) =   2
     Q(r) pseudized with 0 coefficients 


     PseudoPot. # 2 for S  read from file:
     ../S.pz-n-kjpaw_psl.0.1.UPF
     MD5 check sum: c0b1682311cf098e03f7841691d9a679
     Pseudo is Projector augmented-wave + core cor, Zval =  6.0
     Generated using "atomic" code by A. Dal Corso v.5.0.2 svn rev. 9415
     Shape of augmentation charge: PSQ
     Using radial grid of 1151 points,  4 beta functions with: 
                l(1) =   0
                l(2) =   0
                l(3) =   1
                l(4) =   1
     Q(r) pseudized with 0 coefficients 


     atomic species   valence    mass     pseudopotential
        Nb            13.00    92.90600     Nb( 1.00)
        S              6.00    32.06500     S ( 1.00)

     12 Sym. Ops. (no inversion) found ( 6 have fractional translation)


                                    s                        frac. trans.

      isym =  1     identity                                     

 cryst.   s( 1) = (     1          0          0      )
                  (     0          1          0      )
                  (     0          0          1      )

 cart.    s( 1) = (  1.0000000  0.0000000  0.0000000 )
                  (  0.0000000  1.0000000  0.0000000 )
                  (  0.0000000  0.0000000  1.0000000 )


      isym =  2     180 deg rotation - cart. axis [0,1,0]        

 cryst.   s( 2) = (    -1          0          0      )    f =(  0.0000000 )
                  (     1          1          0      )       (  0.0000000 )
                  (     0          0         -1      )       (  0.5000000 )

 cart.    s( 2) = ( -1.0000000  0.0000000  0.0000000 )    f =(  0.0000000 )
                  (  0.0000000  1.0000000  0.0000000 )       (  0.0000000 )
                  (  0.0000000  0.0000000 -1.0000000 )       (  5.8513751 )


      isym =  3     120 deg rotation - cryst. axis [0,0,1]       

 cryst.   s( 3) = (     0          1          0      )
                  (    -1         -1          0      )
                  (     0          0          1      )

 cart.    s( 3) = ( -0.5000000 -0.8660254  0.0000000 )
                  (  0.8660254 -0.5000000  0.0000000 )
                  (  0.0000000  0.0000000  1.0000000 )


      isym =  4     120 deg rotation - cryst. axis [0,0,-1]      

 cryst.   s( 4) = (    -1         -1          0      )
                  (     1          0          0      )
                  (     0          0          1      )

 cart.    s( 4) = ( -0.5000000  0.8660254  0.0000000 )
                  ( -0.8660254 -0.5000000  0.0000000 )
                  (  0.0000000  0.0000000  1.0000000 )


      isym =  5     180 deg rotation - cryst. axis [1,-1,0]      

 cryst.   s( 5) = (     0         -1          0      )    f =(  0.0000000 )
                  (    -1          0          0      )       (  0.0000000 )
                  (     0          0         -1      )       (  0.5000000 )

 cart.    s( 5) = (  0.5000000 -0.8660254  0.0000000 )    f =(  0.0000000 )
                  ( -0.8660254 -0.5000000  0.0000000 )       (  0.0000000 )
                  (  0.0000000  0.0000000 -1.0000000 )       (  5.8513751 )


      isym =  6     180 deg rotation - cryst. axis [2,1,0]       

 cryst.   s( 6) = (     1          1          0      )    f =(  0.0000000 )
                  (     0         -1          0      )       (  0.0000000 )
                  (     0          0         -1      )       (  0.5000000 )

 cart.    s( 6) = (  0.5000000  0.8660254  0.0000000 )    f =( -0.0000000 )
                  (  0.8660254 -0.5000000  0.0000000 )       (  0.0000000 )
                  (  0.0000000  0.0000000 -1.0000000 )       (  5.8513751 )


      isym =  7     inv. 180 deg rotation - cart. axis [0,0,1]   

 cryst.   s( 7) = (     1          0          0      )    f =(  0.0000000 )
                  (     0          1          0      )       (  0.0000000 )
                  (     0          0         -1      )       (  0.5000000 )

 cart.    s( 7) = (  1.0000000  0.0000000  0.0000000 )    f =(  0.0000000 )
                  (  0.0000000  1.0000000  0.0000000 )       (  0.0000000 )
                  (  0.0000000  0.0000000 -1.0000000 )       (  5.8513751 )


      isym =  8     inv. 180 deg rotation - cart. axis [1,0,0]   

 cryst.   s( 8) = (    -1          0          0      )
                  (     1          1          0      )
                  (     0          0          1      )

 cart.    s( 8) = ( -1.0000000  0.0000000  0.0000000 )
                  (  0.0000000  1.0000000  0.0000000 )
                  (  0.0000000  0.0000000  1.0000000 )


      isym =  9     inv.  60 deg rotation - cryst. axis [0,0,1]  

 cryst.   s( 9) = (    -1         -1          0      )    f =(  0.0000000 )
                  (     1          0          0      )       (  0.0000000 )
                  (     0          0         -1      )       (  0.5000000 )

 cart.    s( 9) = ( -0.5000000  0.8660254  0.0000000 )    f =( -0.0000000 )
                  ( -0.8660254 -0.5000000  0.0000000 )       (  0.0000000 )
                  (  0.0000000  0.0000000 -1.0000000 )       (  5.8513751 )


      isym = 10     inv.  60 deg rotation - cryst. axis [0,0,-1] 

 cryst.   s(10) = (     0          1          0      )    f =(  0.0000000 )
                  (    -1         -1          0      )       (  0.0000000 )
                  (     0          0         -1      )       (  0.5000000 )

 cart.    s(10) = ( -0.5000000 -0.8660254  0.0000000 )    f =(  0.0000000 )
                  (  0.8660254 -0.5000000  0.0000000 )       (  0.0000000 )
                  (  0.0000000  0.0000000 -1.0000000 )       (  5.8513751 )


      isym = 11     inv. 180 deg rotation - cryst. axis [0,1,0]  

 cryst.   s(11) = (     1          1          0      )
                  (     0         -1          0      )
                  (     0          0          1      )

 cart.    s(11) = (  0.5000000  0.8660254  0.0000000 )
                  (  0.8660254 -0.5000000  0.0000000 )
                  (  0.0000000  0.0000000  1.0000000 )


      isym = 12     inv. 180 deg rotation - cryst. axis [1,1,0]  

 cryst.   s(12) = (     0         -1          0      )
                  (    -1          0          0      )
                  (     0          0          1      )

 cart.    s(12) = (  0.5000000 -0.8660254  0.0000000 )
                  ( -0.8660254 -0.5000000  0.0000000 )
                  (  0.0000000  0.0000000  1.0000000 )


     point group D_3h (-62m)
     there are  6 classes
     the character table:

       E     2C3   3C2   s_h   2S3   3s_v 
A'_1   1.00  1.00  1.00  1.00  1.00  1.00
A'_2   1.00  1.00 -1.00  1.00  1.00 -1.00
E'     2.00 -1.00  0.00  2.00 -1.00  0.00
A''1   1.00  1.00  1.00 -1.00 -1.00 -1.00
A''2   1.00  1.00 -1.00 -1.00 -1.00  1.00
E''    2.00 -1.00  0.00 -2.00  1.00  0.00

     the symmetry operations in each class and the name of the first element:

     E        1
          identity                                               
     2C3      3    4
          120 deg rotation - cryst. axis [0,0,1]                 
     3C2      2    6    5
          180 deg rotation - cart. axis [0,1,0]                  
     s_h      7
          inv. 180 deg rotation - cart. axis [0,0,1]             
     2S3      9   10
          inv.  60 deg rotation - cryst. axis [0,0,1]            
     3s_v     8   11   12
          inv. 180 deg rotation - cart. axis [1,0,0]             

   Cartesian axes

     site n.     atom                  positions (alat units)
         1           S   tau(   1) = (   0.0000000   0.5773503   4.3089526  )
         2           Nb  tau(   2) = (   0.0000000   0.0000000   2.9256875  )
         3           S   tau(   3) = (   0.0000000   0.5773503   1.5424225  )

   Crystallographic axes

     site n.     atom                  positions (cryst. coord.)
         1           S   tau(   1) = (  0.3333333  0.6666667  0.3682000  )
         2           Nb  tau(   2) = (  0.0000000  0.0000000  0.2500000  )
         3           S   tau(   3) = (  0.3333333  0.6666667  0.1318000  )

     number of k points=     4  Methfessel-Paxton smearing, width (Ry)=  0.0200
                       cart. coord. in units 2pi/alat
        k(    1) = (   0.0000000   0.0000000   0.0000000), wk =   0.1250000
        k(    2) = (   0.0000000   0.2886751   0.0000000), wk =   0.7500000
        k(    3) = (   0.0000000  -0.5773503   0.0000000), wk =   0.3750000
        k(    4) = (   0.2500000   0.4330127   0.0000000), wk =   0.7500000

                       cryst. coord.
        k(    1) = (   0.0000000   0.0000000   0.0000000), wk =   0.1250000
        k(    2) = (   0.0000000   0.2500000   0.0000000), wk =   0.7500000
        k(    3) = (   0.0000000  -0.5000000   0.0000000), wk =   0.3750000
        k(    4) = (   0.2500000   0.2500000   0.0000000), wk =   0.7500000

     Dense  grid:   369475 G-vectors     FFT dimensions: (  45,  45, 486)

     Smooth grid:    76101 G-vectors     FFT dimensions: (  25,  25, 288)

     Dynamical RAM for                 wfc:       1.82 MB

     Dynamical RAM for     wfc (w. buffer):       9.11 MB

     Dynamical RAM for           str. fact:       5.64 MB

     Dynamical RAM for           local pot:       0.00 MB

     Dynamical RAM for          nlocal pot:       2.48 MB

     Dynamical RAM for                qrad:       3.21 MB

     Dynamical RAM for          rho,v,vnew:      19.72 MB

     Dynamical RAM for               rhoin:       6.57 MB

     Dynamical RAM for            rho*nmix:      45.10 MB

     Dynamical RAM for           G-vectors:      10.86 MB

     Dynamical RAM for          h,s,v(r/c):       0.11 MB

     Dynamical RAM for          <psi|beta>:       0.01 MB

     Dynamical RAM for                 psi:       3.64 MB

     Dynamical RAM for                hpsi:       3.64 MB

     Dynamical RAM for                spsi:       3.64 MB

     Dynamical RAM for      wfcinit/wfcrot:       3.66 MB

     Dynamical RAM for           addusdens:     529.97 MB

     Estimated static dynamical RAM per process >     129.92 MB

     Estimated max dynamical RAM per process >     659.89 MB

     Estimated total dynamical RAM >       1.29 GB

     Initial potential from superposition of free atoms

     starting charge   24.99887, renormalised to   25.00000

     negative rho (up, down):  3.555E-04 0.000E+00
     Starting wfcs are   21 randomized atomic wfcs +    4 random wfcs
     Checking if some PAW data can be deallocated... 
       PAW data deallocated on    1 nodes for type:  1

     total cpu time spent up to now is        4.7 secs

     Self-consistent Calculation

     iteration #  1     ecut=    35.00 Ry     beta= 0.70
     Davidson diagonalization with overlap
     ethr =  1.00E-02,  avg # of iterations = 10.2

     negative rho (up, down):  4.222E-04 0.000E+00

     total cpu time spent up to now is       11.1 secs

     total energy              =    -451.72599280 Ry
     estimated scf accuracy    <       1.56954006 Ry

     iteration #  2     ecut=    35.00 Ry     beta= 0.70
     Davidson diagonalization with overlap
     ethr =  6.28E-03,  avg # of iterations =  4.2

     negative rho (up, down):  1.535E-03 0.000E+00

     total cpu time spent up to now is       17.4 secs

     total energy              =    -447.05571065 Ry
     estimated scf accuracy    <     188.42774496 Ry

     iteration #  3     ecut=    35.00 Ry     beta= 0.70
     Davidson diagonalization with overlap
     ethr =  6.28E-03,  avg # of iterations =  5.8

     negative rho (up, down):  7.993E-04 0.000E+00

     total cpu time spent up to now is       23.7 secs

     total energy              =    -452.71352568 Ry
     estimated scf accuracy    <       5.71503496 Ry

     iteration #  4     ecut=    35.00 Ry     beta= 0.70
     Davidson diagonalization with overlap
     ethr =  6.28E-03,  avg # of iterations =  2.5

     negative rho (up, down):  4.555E-04 0.000E+00

     total cpu time spent up to now is       29.1 secs

     total energy              =    -452.90793010 Ry
     estimated scf accuracy    <       2.82876194 Ry

     iteration #  5     ecut=    35.00 Ry     beta= 0.70
     Davidson diagonalization with overlap
     ethr =  6.28E-03,  avg # of iterations =  1.0

     negative rho (up, down):  4.742E-04 0.000E+00

     total cpu time spent up to now is       34.2 secs

     total energy              =    -452.97836167 Ry
     estimated scf accuracy    <       0.20056659 Ry

     iteration #  6     ecut=    35.00 Ry     beta= 0.70
     Davidson diagonalization with overlap
     ethr =  8.02E-04,  avg # of iterations =  4.2

     negative rho (up, down):  4.623E-04 0.000E+00

     total cpu time spent up to now is       39.6 secs

     total energy              =    -452.96099028 Ry
     estimated scf accuracy    <       0.20078198 Ry

     iteration #  7     ecut=    35.00 Ry     beta= 0.70
     Davidson diagonalization with overlap
     ethr =  8.02E-04,  avg # of iterations =  5.8

     negative rho (up, down):  4.631E-04 0.000E+00

     total cpu time spent up to now is       45.1 secs

     total energy              =    -452.98867367 Ry
     estimated scf accuracy    <       0.92506013 Ry

     iteration #  8     ecut=    35.00 Ry     beta= 0.70
     Davidson diagonalization with overlap
     ethr =  8.02E-04,  avg # of iterations =  1.0

     negative rho (up, down):  4.672E-04 0.000E+00

     total cpu time spent up to now is       50.2 secs

     total energy              =    -452.96364374 Ry
     estimated scf accuracy    <       1.02736766 Ry

     iteration #  9     ecut=    35.00 Ry     beta= 0.70
     Davidson diagonalization with overlap
     ethr =  8.02E-04,  avg # of iterations =  1.0

     negative rho (up, down):  4.668E-04 0.000E+00

     total cpu time spent up to now is       55.3 secs

     total energy              =    -452.97411954 Ry
     estimated scf accuracy    <       0.00081264 Ry

     iteration # 10     ecut=    35.00 Ry     beta= 0.70
     Davidson diagonalization with overlap
     ethr =  3.25E-06,  avg # of iterations =  9.5

     negative rho (up, down):  4.655E-04 0.000E+00

     total cpu time spent up to now is       61.4 secs

     total energy              =    -452.97286747 Ry
     estimated scf accuracy    <       0.08116641 Ry

     iteration # 11     ecut=    35.00 Ry     beta= 0.70
     Davidson diagonalization with overlap
     ethr =  3.25E-06,  avg # of iterations =  2.0

     negative rho (up, down):  4.662E-04 0.000E+00

     total cpu time spent up to now is       66.7 secs

     total energy              =    -452.97404236 Ry
     estimated scf accuracy    <       0.00780332 Ry

     iteration # 12     ecut=    35.00 Ry     beta= 0.70
     Davidson diagonalization with overlap
     ethr =  3.25E-06,  avg # of iterations =  1.0

     negative rho (up, down):  4.660E-04 0.000E+00

     total cpu time spent up to now is       71.8 secs

     total energy              =    -452.97418590 Ry
     estimated scf accuracy    <       0.00563390 Ry

     iteration # 13     ecut=    35.00 Ry     beta= 0.70
     Davidson diagonalization with overlap
     ethr =  3.25E-06,  avg # of iterations =  1.0

     negative rho (up, down):  4.660E-04 0.000E+00

     total cpu time spent up to now is       76.9 secs

     total energy              =    -452.97423631 Ry
     estimated scf accuracy    <       0.00003181 Ry

     iteration # 14     ecut=    35.00 Ry     beta= 0.70
     Davidson diagonalization with overlap
     ethr =  1.27E-07,  avg # of iterations =  1.0

     negative rho (up, down):  4.661E-04 0.000E+00

     total cpu time spent up to now is       82.1 secs

     total energy              =    -452.97423623 Ry
     estimated scf accuracy    <       0.00016513 Ry

     iteration # 15     ecut=    35.00 Ry     beta= 0.70
     Davidson diagonalization with overlap
     ethr =  1.27E-07,  avg # of iterations =  1.0

     negative rho (up, down):  4.661E-04 0.000E+00

     total cpu time spent up to now is       87.3 secs

     total energy              =    -452.97423459 Ry
     estimated scf accuracy    <       0.00006436 Ry

     iteration # 16     ecut=    35.00 Ry     beta= 0.70
     Davidson diagonalization with overlap
     ethr =  1.27E-07,  avg # of iterations =  1.0

     negative rho (up, down):  4.661E-04 0.000E+00

     total cpu time spent up to now is       92.4 secs

     total energy              =    -452.97423523 Ry
     estimated scf accuracy    <       0.00000419 Ry

     iteration # 17     ecut=    35.00 Ry     beta= 0.70
     Davidson diagonalization with overlap
     ethr =  1.68E-08,  avg # of iterations =  1.0

     negative rho (up, down):  4.661E-04 0.000E+00

     total cpu time spent up to now is       97.9 secs

     total energy              =    -452.97423523 Ry
     estimated scf accuracy    <       0.00000096 Ry

     iteration # 18     ecut=    35.00 Ry     beta= 0.70
     Davidson diagonalization with overlap
     ethr =  3.84E-09,  avg # of iterations =  1.0

     negative rho (up, down):  4.661E-04 0.000E+00

     total cpu time spent up to now is      103.2 secs

     End of self-consistent calculation

          k = 0.0000 0.0000 0.0000 (  9395 PWs)   bands (ev):

   -60.2806 -36.6554 -35.9948 -35.9948 -15.9244 -15.9243  -7.8898  -5.8835
    -5.8677  -4.8487  -4.2718  -4.2718  -3.2883  -3.2883  -3.1645  -3.1645
    -3.1643  -3.1643  -2.9870   1.4412   1.8445   2.2841   2.5220   2.5373
     3.0577

     occupation numbers 
     1.0000   1.0000   1.0000   1.0000   1.0000   1.0000   1.0000   1.0000
     1.0000   0.8687  -0.0220  -0.0220  -0.0000  -0.0000  -0.0000  -0.0000
    -0.0000  -0.0000  -0.0000  -0.0000  -0.0000  -0.0000  -0.0000  -0.0000
    -0.0000

          k = 0.0000 0.2887 0.0000 (  9527 PWs)   bands (ev):

   -60.2708 -36.6423 -36.1051 -36.0224 -15.4925 -15.4925  -6.6493  -5.4168
    -5.3907  -5.1899  -5.1892  -4.7250  -4.7143  -4.4806  -3.6018  -3.6003
    -3.4954  -3.3201  -0.9871   2.4124   2.9076   3.1499   3.4141   3.6055
     3.9601

     occupation numbers 
     1.0000   1.0000   1.0000   1.0000   1.0000   1.0000   1.0000   1.0008
     1.0012   1.0164   1.0165   0.5362   0.5031  -0.0029  -0.0000  -0.0000
    -0.0000  -0.0000  -0.0000  -0.0000  -0.0000  -0.0000  -0.0000  -0.0000
    -0.0000

          k = 0.0000-0.5774 0.0000 (  9548 PWs)   bands (ev):

   -60.2604 -36.6288 -36.2129 -36.0485 -14.9669 -14.9669  -6.8068  -6.8053
    -6.2258  -5.4368  -4.7514  -4.7130  -4.1203  -3.9752  -3.9742  -3.6925
    -2.6884  -2.0157   0.5495   0.8254   3.1817   3.1915   3.7878   3.9132
     4.5491

     occupation numbers 
     1.0000   1.0000   1.0000   1.0000   1.0000   1.0000   1.0000   1.0000
     1.0000   1.0006   0.6172   0.4989  -0.0043  -0.0004  -0.0004  -0.0000
    -0.0000  -0.0000  -0.0000  -0.0000  -0.0000  -0.0000  -0.0000  -0.0000
    -0.0000

          k = 0.2500 0.4330 0.0000 (  9584 PWs)   bands (ev):

   -60.2606 -36.6287 -36.1724 -36.0908 -14.9765 -14.9765  -6.2161  -6.2147
    -5.1709  -5.1531  -4.9729  -4.9550  -4.9549  -4.7160  -4.7120  -4.1931
    -4.1226  -1.1286   1.0328   1.9518   3.3078   3.7209   4.0415   4.4709
     4.8970

     occupation numbers 
     1.0000   1.0000   1.0000   1.0000   1.0000   1.0000   1.0000   1.0000
     1.0194   1.0223   1.0197   1.0093   1.0092   0.5084   0.4957  -0.0105
    -0.0044  -0.0000  -0.0000  -0.0000  -0.0000  -0.0000  -0.0000  -0.0000
    -0.0000

     the Fermi energy is    -4.7133 ev

!    total energy              =    -452.97423524 Ry

     total all-electron energy =     -9223.178746 Ry
     estimated scf accuracy    <          3.0E-10 Ry
     smearing contrib. (-TS)   =      -0.00520076 Ry
     internal energy E=F+TS    =    -452.96903448 Ry

     The total energy is F=E-TS. E is the sum of the following terms:
     one-electron contribution =   -1481.67449950 Ry
     hartree contribution      =     740.34219118 Ry
     xc contribution           =     -31.33415941 Ry
     ewald contribution        =     613.75036080 Ry
     one-center paw contrib.   =    -294.05292755 Ry
      -> PAW hartree energy AE =      81.18507312 Ry
      -> PAW hartree energy PS =     -80.70208674 Ry
      -> PAW xc energy AE      =    -275.62859253 Ry
      -> PAW xc energy PS      =      22.76372512 Ry
      -> total E_H with PAW    =     740.82517757 Ry
      -> total E_XC with PAW   =    -284.19902681 Ry

     convergence has been achieved in  18 iterations

     Writing output data file ./tmp/NbS2.save/

     init_run     :      3.32s CPU      3.62s WALL (       1 calls)
     electrons    :     88.88s CPU     98.63s WALL (       1 calls)

     Called by init_run:
     wfcinit      :      0.69s CPU      0.71s WALL (       1 calls)
     wfcinit:atom :      0.01s CPU      0.01s WALL (       4 calls)
     wfcinit:wfcr :      0.67s CPU      0.68s WALL (       4 calls)
     potinit      :      0.64s CPU      0.68s WALL (       1 calls)
     hinit0       :      0.98s CPU      1.00s WALL (       1 calls)

     Called by electrons:
     c_bands      :     33.04s CPU     33.39s WALL (      18 calls)
     sum_band     :     34.10s CPU     39.18s WALL (      18 calls)
     v_of_rho     :      1.59s CPU      1.63s WALL (      19 calls)
     v_h          :      0.89s CPU      0.91s WALL (      19 calls)
     v_xc         :      0.69s CPU      0.72s WALL (      19 calls)
     newd         :     17.25s CPU     21.62s WALL (      19 calls)
     PAW_pot      :      1.02s CPU      1.02s WALL (      19 calls)
     mix_rho      :      1.81s CPU      1.86s WALL (      18 calls)

     Called by c_bands:
     init_us_2    :      0.28s CPU      0.29s WALL (     148 calls)
     cegterg      :     32.47s CPU     32.80s WALL (      72 calls)

     Called by sum_band:
     sum_band:wei :      0.00s CPU      0.00s WALL (      18 calls)
     sum_band:loo :      6.36s CPU      6.42s WALL (      18 calls)
     sum_band:buf :      0.07s CPU      0.07s WALL (      72 calls)
     sum_band:ini :      0.14s CPU      0.14s WALL (      72 calls)
     sum_band:cal :      0.65s CPU      0.65s WALL (      72 calls)
     sum_band:bec :      0.00s CPU      0.00s WALL (      72 calls)
     addusdens    :     26.36s CPU     31.29s WALL (      18 calls)
     addusd:skk   :      0.05s CPU      0.06s WALL (      36 calls)
     addusd:dgemm :      6.81s CPU     10.84s WALL (      36 calls)
     addusd:qvan2 :     18.22s CPU     18.23s WALL (      36 calls)

     Called by *egterg:
     cdiaghg      :      0.23s CPU      0.23s WALL (     289 calls)
     cegterg:over :      2.03s CPU      2.04s WALL (     217 calls)
     cegterg:upda :      1.14s CPU      1.15s WALL (     217 calls)
     cegterg:last :      2.56s CPU      2.56s WALL (     111 calls)
     h_psi        :     24.58s CPU     24.90s WALL (     293 calls)
     s_psi        :      1.41s CPU      1.41s WALL (     293 calls)
     g_psi        :      0.05s CPU      0.05s WALL (     217 calls)

     Called by h_psi:
     h_psi:calbec :      1.61s CPU      1.63s WALL (     293 calls)
     vloc_psi     :     21.50s CPU     21.79s WALL (     293 calls)
     add_vuspsi   :      1.33s CPU      1.34s WALL (     293 calls)

     General routines
     calbec       :      2.26s CPU      2.28s WALL (     365 calls)
     fft          :      4.08s CPU      4.23s WALL (     112 calls)
     ffts         :      0.17s CPU      0.18s WALL (      37 calls)
     fftw         :     22.24s CPU     22.53s WALL (   10264 calls)
     interpolate  :      0.85s CPU      0.87s WALL (      19 calls)

     Parallel routines
     fft_scatt_xy :      3.93s CPU      3.98s WALL (   10413 calls)
     fft_scatt_yz :      2.49s CPU      2.64s WALL (   10413 calls)

     PAW routines
     PAW_pot      :      1.02s CPU      1.02s WALL (      19 calls)
     PAW_symme    :      0.00s CPU      0.00s WALL (      37 calls)

     PWSCF        :   1m33.27s CPU   1m43.53s WALL


   This run was terminated on:  15:20:57  10Jun2021            

=------------------------------------------------------------------------------=
   JOB DONE.
=------------------------------------------------------------------------------=
