
     Program PWSCF v.6.6 starts on 10Jun2021 at 15:10:27 

     This program is part of the open-source Quantum ESPRESSO suite
     for quantum simulation of materials; please cite
         "P. Giannozzi et al., J. Phys.:Condens. Matter 21 395502 (2009);
         "P. Giannozzi et al., J. Phys.:Condens. Matter 29 465901 (2017);
          URL http://www.quantum-espresso.org", 
     in publications or presentations arising from this work. More details at
     http://www.quantum-espresso.org/quote

     Parallel version (MPI), running on     2 processors

     MPI processes distributed on     1 nodes
     R & G space division:  proc/nbgrp/npool/nimage =       2
     Fft bands division:     nmany     =       1
     Waiting for input...
     Reading input from standard input

     Current dimensions of program PWSCF are:
     Max number of different atomic species (ntypx) = 10
     Max number of k-points (npk) =  40000
     Max angular momentum in pseudopotentials (lmaxx) =  3
     file Nb.pz-spn-kjpaw_psl.1.0.0.UPF: wavefunction(s)  4S 4P 4D renormalized
     file S.pz-n-kjpaw_psl.0.1.UPF: wavefunction(s)  3P renormalized

     Subspace diagonalization in iterative solution of the eigenvalue problem:
     a serial algorithm will be used


     Parallelization info
     --------------------
     sticks:   dense  smooth     PW     G-vecs:    dense   smooth      PW
     Min         579      60     18               184729     5919    1160
     Max         580      61     19               184746     5922    1197
     Sum        1159     121     37               369475    11841    2357



     bravais-lattice index     =            4
     lattice parameter (alat)  =       6.4591  a.u.
     unit-cell volume          =    2731.0606 (a.u.)^3
     number of atoms/cell      =            3
     number of atomic types    =            2
     number of electrons       =        25.00
     number of Kohn-Sham states=           25
     kinetic-energy cutoff     =      10.0000  Ry
     charge density cutoff     =     400.0000  Ry
     convergence threshold     =      1.0E-08
     mixing beta               =       0.7000
     number of iterations used =            8  plain     mixing
     Exchange-correlation= SLA PZ NOGX NOGC
                           (   1   1   0   0   0   0   0)

     celldm(1)=   6.459084  celldm(2)=   0.000000  celldm(3)=  11.702750
     celldm(4)=   0.000000  celldm(5)=   0.000000  celldm(6)=   0.000000

     crystal axes: (cart. coord. in units of alat)
               a(1) = (   1.000000   0.000000   0.000000 )  
               a(2) = (  -0.500000   0.866025   0.000000 )  
               a(3) = (   0.000000   0.000000  11.702750 )  

     reciprocal axes: (cart. coord. in units 2 pi/alat)
               b(1) = (  1.000000  0.577350 -0.000000 )  
               b(2) = (  0.000000  1.154701  0.000000 )  
               b(3) = (  0.000000 -0.000000  0.085450 )  


     PseudoPot. # 1 for Nb read from file:
     ../Nb.pz-spn-kjpaw_psl.1.0.0.UPF
     MD5 check sum: 38c2e04b3cc915696ca8dc9f46a23270
     Pseudo is Projector augmented-wave + core cor, Zval = 13.0
     Generated using "atomic" code by A. Dal Corso v.6.2.2
     Shape of augmentation charge: PSQ
     Using radial grid of 1227 points,  6 beta functions with: 
                l(1) =   0
                l(2) =   0
                l(3) =   1
                l(4) =   1
                l(5) =   2
                l(6) =   2
     Q(r) pseudized with 0 coefficients 


     PseudoPot. # 2 for S  read from file:
     ../S.pz-n-kjpaw_psl.0.1.UPF
     MD5 check sum: c0b1682311cf098e03f7841691d9a679
     Pseudo is Projector augmented-wave + core cor, Zval =  6.0
     Generated using "atomic" code by A. Dal Corso v.5.0.2 svn rev. 9415
     Shape of augmentation charge: PSQ
     Using radial grid of 1151 points,  4 beta functions with: 
                l(1) =   0
                l(2) =   0
                l(3) =   1
                l(4) =   1
     Q(r) pseudized with 0 coefficients 


     atomic species   valence    mass     pseudopotential
        Nb            13.00    92.90600     Nb( 1.00)
        S              6.00    32.06500     S ( 1.00)

     12 Sym. Ops. (no inversion) found ( 6 have fractional translation)


                                    s                        frac. trans.

      isym =  1     identity                                     

 cryst.   s( 1) = (     1          0          0      )
                  (     0          1          0      )
                  (     0          0          1      )

 cart.    s( 1) = (  1.0000000  0.0000000  0.0000000 )
                  (  0.0000000  1.0000000  0.0000000 )
                  (  0.0000000  0.0000000  1.0000000 )


      isym =  2     180 deg rotation - cart. axis [0,1,0]        

 cryst.   s( 2) = (    -1          0          0      )    f =(  0.0000000 )
                  (     1          1          0      )       (  0.0000000 )
                  (     0          0         -1      )       (  0.5000000 )

 cart.    s( 2) = ( -1.0000000  0.0000000  0.0000000 )    f =(  0.0000000 )
                  (  0.0000000  1.0000000  0.0000000 )       (  0.0000000 )
                  (  0.0000000  0.0000000 -1.0000000 )       (  5.8513751 )


      isym =  3     120 deg rotation - cryst. axis [0,0,1]       

 cryst.   s( 3) = (     0          1          0      )
                  (    -1         -1          0      )
                  (     0          0          1      )

 cart.    s( 3) = ( -0.5000000 -0.8660254  0.0000000 )
                  (  0.8660254 -0.5000000  0.0000000 )
                  (  0.0000000  0.0000000  1.0000000 )


      isym =  4     120 deg rotation - cryst. axis [0,0,-1]      

 cryst.   s( 4) = (    -1         -1          0      )
                  (     1          0          0      )
                  (     0          0          1      )

 cart.    s( 4) = ( -0.5000000  0.8660254  0.0000000 )
                  ( -0.8660254 -0.5000000  0.0000000 )
                  (  0.0000000  0.0000000  1.0000000 )


      isym =  5     180 deg rotation - cryst. axis [1,-1,0]      

 cryst.   s( 5) = (     0         -1          0      )    f =(  0.0000000 )
                  (    -1          0          0      )       (  0.0000000 )
                  (     0          0         -1      )       (  0.5000000 )

 cart.    s( 5) = (  0.5000000 -0.8660254  0.0000000 )    f =(  0.0000000 )
                  ( -0.8660254 -0.5000000  0.0000000 )       (  0.0000000 )
                  (  0.0000000  0.0000000 -1.0000000 )       (  5.8513751 )


      isym =  6     180 deg rotation - cryst. axis [2,1,0]       

 cryst.   s( 6) = (     1          1          0      )    f =(  0.0000000 )
                  (     0         -1          0      )       (  0.0000000 )
                  (     0          0         -1      )       (  0.5000000 )

 cart.    s( 6) = (  0.5000000  0.8660254  0.0000000 )    f =( -0.0000000 )
                  (  0.8660254 -0.5000000  0.0000000 )       (  0.0000000 )
                  (  0.0000000  0.0000000 -1.0000000 )       (  5.8513751 )


      isym =  7     inv. 180 deg rotation - cart. axis [0,0,1]   

 cryst.   s( 7) = (     1          0          0      )    f =(  0.0000000 )
                  (     0          1          0      )       (  0.0000000 )
                  (     0          0         -1      )       (  0.5000000 )

 cart.    s( 7) = (  1.0000000  0.0000000  0.0000000 )    f =(  0.0000000 )
                  (  0.0000000  1.0000000  0.0000000 )       (  0.0000000 )
                  (  0.0000000  0.0000000 -1.0000000 )       (  5.8513751 )


      isym =  8     inv. 180 deg rotation - cart. axis [1,0,0]   

 cryst.   s( 8) = (    -1          0          0      )
                  (     1          1          0      )
                  (     0          0          1      )

 cart.    s( 8) = ( -1.0000000  0.0000000  0.0000000 )
                  (  0.0000000  1.0000000  0.0000000 )
                  (  0.0000000  0.0000000  1.0000000 )


      isym =  9     inv.  60 deg rotation - cryst. axis [0,0,1]  

 cryst.   s( 9) = (    -1         -1          0      )    f =(  0.0000000 )
                  (     1          0          0      )       (  0.0000000 )
                  (     0          0         -1      )       (  0.5000000 )

 cart.    s( 9) = ( -0.5000000  0.8660254  0.0000000 )    f =( -0.0000000 )
                  ( -0.8660254 -0.5000000  0.0000000 )       (  0.0000000 )
                  (  0.0000000  0.0000000 -1.0000000 )       (  5.8513751 )


      isym = 10     inv.  60 deg rotation - cryst. axis [0,0,-1] 

 cryst.   s(10) = (     0          1          0      )    f =(  0.0000000 )
                  (    -1         -1          0      )       (  0.0000000 )
                  (     0          0         -1      )       (  0.5000000 )

 cart.    s(10) = ( -0.5000000 -0.8660254  0.0000000 )    f =(  0.0000000 )
                  (  0.8660254 -0.5000000  0.0000000 )       (  0.0000000 )
                  (  0.0000000  0.0000000 -1.0000000 )       (  5.8513751 )


      isym = 11     inv. 180 deg rotation - cryst. axis [0,1,0]  

 cryst.   s(11) = (     1          1          0      )
                  (     0         -1          0      )
                  (     0          0          1      )

 cart.    s(11) = (  0.5000000  0.8660254  0.0000000 )
                  (  0.8660254 -0.5000000  0.0000000 )
                  (  0.0000000  0.0000000  1.0000000 )


      isym = 12     inv. 180 deg rotation - cryst. axis [1,1,0]  

 cryst.   s(12) = (     0         -1          0      )
                  (    -1          0          0      )
                  (     0          0          1      )

 cart.    s(12) = (  0.5000000 -0.8660254  0.0000000 )
                  ( -0.8660254 -0.5000000  0.0000000 )
                  (  0.0000000  0.0000000  1.0000000 )


     point group D_3h (-62m)
     there are  6 classes
     the character table:

       E     2C3   3C2   s_h   2S3   3s_v 
A'_1   1.00  1.00  1.00  1.00  1.00  1.00
A'_2   1.00  1.00 -1.00  1.00  1.00 -1.00
E'     2.00 -1.00  0.00  2.00 -1.00  0.00
A''1   1.00  1.00  1.00 -1.00 -1.00 -1.00
A''2   1.00  1.00 -1.00 -1.00 -1.00  1.00
E''    2.00 -1.00  0.00 -2.00  1.00  0.00

     the symmetry operations in each class and the name of the first element:

     E        1
          identity                                               
     2C3      3    4
          120 deg rotation - cryst. axis [0,0,1]                 
     3C2      2    6    5
          180 deg rotation - cart. axis [0,1,0]                  
     s_h      7
          inv. 180 deg rotation - cart. axis [0,0,1]             
     2S3      9   10
          inv.  60 deg rotation - cryst. axis [0,0,1]            
     3s_v     8   11   12
          inv. 180 deg rotation - cart. axis [1,0,0]             

   Cartesian axes

     site n.     atom                  positions (alat units)
         1           S   tau(   1) = (   0.0000000   0.5773503   4.3089526  )
         2           Nb  tau(   2) = (   0.0000000   0.0000000   2.9256875  )
         3           S   tau(   3) = (   0.0000000   0.5773503   1.5424225  )

   Crystallographic axes

     site n.     atom                  positions (cryst. coord.)
         1           S   tau(   1) = (  0.3333333  0.6666667  0.3682000  )
         2           Nb  tau(   2) = (  0.0000000  0.0000000  0.2500000  )
         3           S   tau(   3) = (  0.3333333  0.6666667  0.1318000  )

     number of k points=     4  Methfessel-Paxton smearing, width (Ry)=  0.0200
                       cart. coord. in units 2pi/alat
        k(    1) = (   0.0000000   0.0000000   0.0000000), wk =   0.1250000
        k(    2) = (   0.0000000   0.2886751   0.0000000), wk =   0.7500000
        k(    3) = (   0.0000000  -0.5773503   0.0000000), wk =   0.3750000
        k(    4) = (   0.2500000   0.4330127   0.0000000), wk =   0.7500000

                       cryst. coord.
        k(    1) = (   0.0000000   0.0000000   0.0000000), wk =   0.1250000
        k(    2) = (   0.0000000   0.2500000   0.0000000), wk =   0.7500000
        k(    3) = (   0.0000000  -0.5000000   0.0000000), wk =   0.3750000
        k(    4) = (   0.2500000   0.2500000   0.0000000), wk =   0.7500000

     Dense  grid:   369475 G-vectors     FFT dimensions: (  45,  45, 486)

     Smooth grid:    11841 G-vectors     FFT dimensions: (  15,  15, 160)

     Dynamical RAM for                 wfc:       0.28 MB

     Dynamical RAM for     wfc (w. buffer):       1.39 MB

     Dynamical RAM for           str. fact:       5.64 MB

     Dynamical RAM for           local pot:       0.00 MB

     Dynamical RAM for          nlocal pot:       0.38 MB

     Dynamical RAM for                qrad:       3.21 MB

     Dynamical RAM for          rho,v,vnew:      19.72 MB

     Dynamical RAM for               rhoin:       6.57 MB

     Dynamical RAM for            rho*nmix:      45.10 MB

     Dynamical RAM for           G-vectors:      10.62 MB

     Dynamical RAM for          h,s,v(r/c):       0.11 MB

     Dynamical RAM for          <psi|beta>:       0.01 MB

     Dynamical RAM for                 psi:       0.56 MB

     Dynamical RAM for                hpsi:       0.56 MB

     Dynamical RAM for                spsi:       0.56 MB

     Dynamical RAM for      wfcinit/wfcrot:       0.57 MB

     Dynamical RAM for           addusdens:     529.97 MB

     Estimated static dynamical RAM per process >     119.86 MB

     Estimated max dynamical RAM per process >     649.83 MB

     Estimated total dynamical RAM >       1.27 GB

     Initial potential from superposition of free atoms

     starting charge   24.99887, renormalised to   25.00000

     negative rho (up, down):  3.555E-04 0.000E+00
     Starting wfcs are   21 randomized atomic wfcs +    4 random wfcs
     Checking if some PAW data can be deallocated... 
       PAW data deallocated on    1 nodes for type:  1

     total cpu time spent up to now is        4.0 secs

     Self-consistent Calculation

     iteration #  1     ecut=    10.00 Ry     beta= 0.70
     Davidson diagonalization with overlap
     ethr =  1.00E-02,  avg # of iterations =  9.5

     negative rho (up, down):  5.956E-06 0.000E+00

     total cpu time spent up to now is        7.6 secs

     total energy              =    -436.10243065 Ry
     estimated scf accuracy    <      15.46348275 Ry

     iteration #  2     ecut=    10.00 Ry     beta= 0.70
     Davidson diagonalization with overlap
     ethr =  1.00E-02,  avg # of iterations =  8.0

     negative rho (up, down):  1.137E+00 0.000E+00

     total cpu time spent up to now is       11.8 secs

     total energy              =    -449.04452226 Ry
     estimated scf accuracy    <     260.07191650 Ry

     iteration #  3     ecut=    10.00 Ry     beta= 0.70
     Davidson diagonalization with overlap
     ethr =  1.00E-02,  avg # of iterations =  7.0

     negative rho (up, down):  1.053E+00 0.000E+00

     total cpu time spent up to now is       15.7 secs

     total energy              =    -443.06361276 Ry
     estimated scf accuracy    <      83.34242711 Ry

     iteration #  4     ecut=    10.00 Ry     beta= 0.70
     Davidson diagonalization with overlap
     ethr =  1.00E-02,  avg # of iterations =  7.0

     negative rho (up, down):  1.274E-02 0.000E+00

     total cpu time spent up to now is       19.4 secs

     total energy              =    -448.98098241 Ry
     estimated scf accuracy    <      22.20750051 Ry

     iteration #  5     ecut=    10.00 Ry     beta= 0.70
     Davidson diagonalization with overlap
     ethr =  1.00E-02,  avg # of iterations =  1.5

     negative rho (up, down):  2.258E-01 0.000E+00

     total cpu time spent up to now is       23.2 secs

     total energy              =    -447.83328864 Ry
     estimated scf accuracy    <      16.06059169 Ry

     iteration #  6     ecut=    10.00 Ry     beta= 0.70
     Davidson diagonalization with overlap
     ethr =  1.00E-02,  avg # of iterations =  2.0

     negative rho (up, down):  6.146E-02 0.000E+00

     total cpu time spent up to now is       26.8 secs

     total energy              =    -448.40158637 Ry
     estimated scf accuracy    <       1.84395820 Ry

     iteration #  7     ecut=    10.00 Ry     beta= 0.70
     Davidson diagonalization with overlap
     ethr =  7.38E-03,  avg # of iterations =  1.0

     negative rho (up, down):  1.324E-01 0.000E+00

     total cpu time spent up to now is       30.2 secs

     total energy              =    -448.48055363 Ry
     estimated scf accuracy    <       0.94110497 Ry

     iteration #  8     ecut=    10.00 Ry     beta= 0.70
     Davidson diagonalization with overlap
     ethr =  3.76E-03,  avg # of iterations =  1.0

     negative rho (up, down):  1.519E-01 0.000E+00

     total cpu time spent up to now is       33.5 secs

     total energy              =    -448.48644428 Ry
     estimated scf accuracy    <       0.99933827 Ry

     iteration #  9     ecut=    10.00 Ry     beta= 0.70
     Davidson diagonalization with overlap
     ethr =  3.76E-03,  avg # of iterations =  1.0

     negative rho (up, down):  1.512E-01 0.000E+00

     total cpu time spent up to now is       36.9 secs

     total energy              =    -448.37987741 Ry
     estimated scf accuracy    <       1.22576249 Ry

     iteration # 10     ecut=    10.00 Ry     beta= 0.70
     Davidson diagonalization with overlap
     ethr =  3.76E-03,  avg # of iterations =  1.0

     negative rho (up, down):  1.796E-02 0.000E+00

     total cpu time spent up to now is       40.3 secs

     total energy              =    -448.45696543 Ry
     estimated scf accuracy    <       1.34680921 Ry

     iteration # 11     ecut=    10.00 Ry     beta= 0.70
     Davidson diagonalization with overlap
     ethr =  3.76E-03,  avg # of iterations =  1.0

     negative rho (up, down):  2.228E-02 0.000E+00

     total cpu time spent up to now is       43.7 secs

     total energy              =    -448.48441117 Ry
     estimated scf accuracy    <       0.32186753 Ry

     iteration # 12     ecut=    10.00 Ry     beta= 0.70
     Davidson diagonalization with overlap
     ethr =  1.29E-03,  avg # of iterations =  1.0

     negative rho (up, down):  8.704E-02 0.000E+00

     total cpu time spent up to now is       47.1 secs

     total energy              =    -448.46249122 Ry
     estimated scf accuracy    <       1.48388128 Ry

     iteration # 13     ecut=    10.00 Ry     beta= 0.70
     Davidson diagonalization with overlap
     ethr =  1.29E-03,  avg # of iterations =  1.2

     negative rho (up, down):  7.343E-02 0.000E+00

     total cpu time spent up to now is       50.5 secs

     total energy              =    -448.45178859 Ry
     estimated scf accuracy    <       0.62225468 Ry

     iteration # 14     ecut=    10.00 Ry     beta= 0.70
     Davidson diagonalization with overlap
     ethr =  1.29E-03,  avg # of iterations =  1.0

     negative rho (up, down):  5.590E-02 0.000E+00

     total cpu time spent up to now is       53.9 secs

     total energy              =    -448.43348466 Ry
     estimated scf accuracy    <       0.48513091 Ry

     iteration # 15     ecut=    10.00 Ry     beta= 0.70
     Davidson diagonalization with overlap
     ethr =  1.29E-03,  avg # of iterations =  1.0

     negative rho (up, down):  2.534E-04 0.000E+00

     total cpu time spent up to now is       57.3 secs

     total energy              =    -448.44708676 Ry
     estimated scf accuracy    <       0.08379994 Ry

     iteration # 16     ecut=    10.00 Ry     beta= 0.70
     Davidson diagonalization with overlap
     ethr =  3.35E-04,  avg # of iterations =  3.2

     negative rho (up, down):  2.056E-03 0.000E+00

     total cpu time spent up to now is       60.7 secs

     total energy              =    -448.44782170 Ry
     estimated scf accuracy    <       0.00394442 Ry

     iteration # 17     ecut=    10.00 Ry     beta= 0.70
     Davidson diagonalization with overlap
     ethr =  1.58E-05,  avg # of iterations =  3.0

     negative rho (up, down):  6.973E-04 0.000E+00

     total cpu time spent up to now is       64.3 secs

     total energy              =    -448.44790017 Ry
     estimated scf accuracy    <       0.00016308 Ry

     iteration # 18     ecut=    10.00 Ry     beta= 0.70
     Davidson diagonalization with overlap
     ethr =  6.52E-07,  avg # of iterations =  4.0

     negative rho (up, down):  1.316E-05 0.000E+00

     total cpu time spent up to now is       67.8 secs

     total energy              =    -448.44791638 Ry
     estimated scf accuracy    <       0.00099639 Ry

     iteration # 19     ecut=    10.00 Ry     beta= 0.70
     Davidson diagonalization with overlap
     ethr =  6.52E-07,  avg # of iterations =  1.0

     negative rho (up, down):  1.289E-04 0.000E+00

     total cpu time spent up to now is       71.2 secs

     total energy              =    -448.44790576 Ry
     estimated scf accuracy    <       0.00066133 Ry

     iteration # 20     ecut=    10.00 Ry     beta= 0.70
     Davidson diagonalization with overlap
     ethr =  6.52E-07,  avg # of iterations =  1.0

     negative rho (up, down):  2.479E-04 0.000E+00

     total cpu time spent up to now is       74.6 secs

     total energy              =    -448.44787477 Ry
     estimated scf accuracy    <       0.00064640 Ry

     iteration # 21     ecut=    10.00 Ry     beta= 0.70
     Davidson diagonalization with overlap
     ethr =  6.52E-07,  avg # of iterations =  1.0

     negative rho (up, down):  5.677E-07 0.000E+00

     total cpu time spent up to now is       78.0 secs

     total energy              =    -448.44790268 Ry
     estimated scf accuracy    <       0.00002664 Ry

     iteration # 22     ecut=    10.00 Ry     beta= 0.70
     Davidson diagonalization with overlap
     ethr =  1.07E-07,  avg # of iterations =  1.0

     negative rho (up, down):  2.869E-07 0.000E+00

     total cpu time spent up to now is       81.4 secs

     total energy              =    -448.44790367 Ry
     estimated scf accuracy    <       0.00000068 Ry

     iteration # 23     ecut=    10.00 Ry     beta= 0.70
     Davidson diagonalization with overlap
     ethr =  2.70E-09,  avg # of iterations =  1.0

     negative rho (up, down):  1.989E-07 0.000E+00

     total cpu time spent up to now is       84.7 secs

     End of self-consistent calculation

          k = 0.0000 0.0000 0.0000 (  1499 PWs)   bands (ev):

   -72.7542 -39.3576 -39.2340 -39.2340 -16.1832 -16.1812  -9.5232  -5.8584
    -5.8106  -4.9499  -4.3080  -4.3080  -3.1710  -3.1710  -3.1325  -3.1325
    -3.1252  -2.3174  -2.3174   1.4155   1.7617   2.2928   2.5046   2.5479
     3.0847

     occupation numbers 
     1.0000   1.0000   1.0000   1.0000   1.0000   1.0000   1.0000   1.0000
     1.0000   1.0167  -0.0308  -0.0308  -0.0000  -0.0000  -0.0000  -0.0000
    -0.0000  -0.0000  -0.0000  -0.0000  -0.0000  -0.0000  -0.0000  -0.0000
    -0.0000

          k = 0.0000 0.2887 0.0000 (  1444 PWs)   bands (ev):

   -72.7283 -39.4732 -38.7890 -38.6941 -15.7574 -15.7572  -7.9889  -5.3667
    -5.3631  -5.1712  -5.1687  -4.8126  -4.6112  -4.0738  -3.5537  -3.5515
    -2.6931  -2.4488  -0.6843   2.3887   2.8510   3.1063   3.4558   3.6008
     3.9567

     occupation numbers 
     1.0000   1.0000   1.0000   1.0000   1.0000   1.0000   1.0000   1.0014
     1.0014   1.0166   1.0170   0.8284   0.2500  -0.0029  -0.0000  -0.0000
    -0.0000  -0.0000  -0.0000  -0.0000  -0.0000  -0.0000  -0.0000  -0.0000
    -0.0000

          k = 0.0000-0.5774 0.0000 (  1478 PWs)   bands (ev):

   -72.7638 -39.6062 -39.5226 -38.9595 -15.2491 -15.2487  -6.9334  -6.8271
    -6.8259  -5.5042  -4.7504  -4.6748  -4.0864  -3.9556  -3.9278  -3.0372
    -3.0356  -0.9212   0.0899   0.7184   3.2511   3.4725   3.9127   4.1465
     4.9821

     occupation numbers 
     1.0000   1.0000   1.0000   1.0000   1.0000   1.0000   1.0000   1.0000
     1.0000   1.0001   0.6656   0.4346  -0.0034  -0.0004  -0.0002  -0.0000
    -0.0000  -0.0000  -0.0000  -0.0000  -0.0000  -0.0000  -0.0000  -0.0000
    -0.0000

          k = 0.2500 0.4330 0.0000 (  1451 PWs)   bands (ev):

   -72.7536 -39.4743 -39.2974 -38.9024 -15.2568 -15.2567  -6.2310  -6.2292
    -5.6379  -5.0950  -5.0336  -4.9344  -4.9290  -4.6974  -4.6749  -3.7984
    -3.7883  -0.5419   0.9520   1.1571   3.5271   3.9836   4.2065   4.5318
     5.0990

     occupation numbers 
     1.0000   1.0000   1.0000   1.0000   1.0000   1.0000   1.0000   1.0000
     1.0000   1.0291   1.0354   1.0071   1.0031   0.5046   0.4348  -0.0000
    -0.0000  -0.0000  -0.0000  -0.0000  -0.0000  -0.0000  -0.0000  -0.0000
    -0.0000

     the Fermi energy is    -4.6959 ev

!    total energy              =    -448.44790379 Ry

     total all-electron energy =     -9218.652415 Ry
     estimated scf accuracy    <          1.4E-09 Ry
     smearing contrib. (-TS)   =      -0.00434562 Ry
     internal energy E=F+TS    =    -448.44355818 Ry

     The total energy is F=E-TS. E is the sum of the following terms:
     one-electron contribution =   -1472.02260355 Ry
     hartree contribution      =     732.89575724 Ry
     xc contribution           =     -30.09169088 Ry
     ewald contribution        =     613.75036080 Ry
     one-center paw contrib.   =    -292.97538179 Ry
      -> PAW hartree energy AE =     129.47051469 Ry
      -> PAW hartree energy PS =    -129.44845267 Ry
      -> PAW xc energy AE      =    -279.03897352 Ry
      -> PAW xc energy PS      =      27.66350096 Ry
      -> total E_H with PAW    =     732.91781927 Ry
      -> total E_XC with PAW   =    -281.46716344 Ry

     convergence has been achieved in  23 iterations

     Writing output data file ./tmp/NbS2.save/

     init_run     :      2.69s CPU      3.03s WALL (       1 calls)
     electrons    :     68.28s CPU     80.75s WALL (       1 calls)

     Called by init_run:
     wfcinit      :      0.07s CPU      0.07s WALL (       1 calls)
     wfcinit:atom :      0.00s CPU      0.00s WALL (       4 calls)
     wfcinit:wfcr :      0.06s CPU      0.06s WALL (       4 calls)
     potinit      :      0.64s CPU      0.68s WALL (       1 calls)
     hinit0       :      0.93s CPU      0.95s WALL (       1 calls)

     Called by electrons:
     c_bands      :      4.39s CPU      4.53s WALL (      23 calls)
     sum_band     :     36.59s CPU     43.04s WALL (      23 calls)
     v_of_rho     :      1.97s CPU      2.26s WALL (      24 calls)
     v_h          :      1.11s CPU      1.29s WALL (      24 calls)
     v_xc         :      0.86s CPU      0.97s WALL (      24 calls)
     newd         :     21.87s CPU     27.50s WALL (      24 calls)
     PAW_pot      :      1.28s CPU      1.28s WALL (      24 calls)
     mix_rho      :      2.04s CPU      2.08s WALL (      23 calls)

     Called by c_bands:
     init_us_2    :      0.06s CPU      0.06s WALL (     188 calls)
     cegterg      :      4.28s CPU      4.40s WALL (      92 calls)

     Called by sum_band:
     sum_band:wei :      0.00s CPU      0.00s WALL (      23 calls)
     sum_band:loo :      0.64s CPU      0.65s WALL (      23 calls)
     sum_band:buf :      0.01s CPU      0.01s WALL (      92 calls)
     sum_band:ini :      0.03s CPU      0.03s WALL (      92 calls)
     sum_band:cal :      0.09s CPU      0.09s WALL (      92 calls)
     sum_band:bec :      0.00s CPU      0.00s WALL (      92 calls)
     addusdens    :     34.36s CPU     40.72s WALL (      23 calls)
     addusd:skk   :      0.06s CPU      0.09s WALL (      46 calls)
     addusd:dgemm :      8.77s CPU     14.04s WALL (      46 calls)
     addusd:qvan2 :     23.96s CPU     23.98s WALL (      46 calls)

     Called by *egterg:
     cdiaghg      :      0.25s CPU      0.25s WALL (     330 calls)
     cegterg:over :      0.37s CPU      0.37s WALL (     238 calls)
     cegterg:upda :      0.17s CPU      0.17s WALL (     238 calls)
     cegterg:last :      0.33s CPU      0.34s WALL (     164 calls)
     h_psi        :      2.83s CPU      2.94s WALL (     334 calls)
     s_psi        :      0.18s CPU      0.18s WALL (     334 calls)
     g_psi        :      0.01s CPU      0.01s WALL (     238 calls)

     Called by h_psi:
     h_psi:calbec :      0.24s CPU      0.26s WALL (     334 calls)
     vloc_psi     :      2.38s CPU      2.47s WALL (     334 calls)
     add_vuspsi   :      0.18s CPU      0.19s WALL (     334 calls)

     General routines
     calbec       :      0.33s CPU      0.34s WALL (     426 calls)
     fft          :      5.10s CPU      5.41s WALL (     142 calls)
     ffts         :      0.03s CPU      0.03s WALL (      47 calls)
     fftw         :      2.60s CPU      2.70s WALL (   13804 calls)
     interpolate  :      0.87s CPU      1.01s WALL (      24 calls)

     Parallel routines
     fft_scatt_xy :      0.99s CPU      1.01s WALL (   13993 calls)
     fft_scatt_yz :      1.61s CPU      1.78s WALL (   13993 calls)

     PAW routines
     PAW_pot      :      1.28s CPU      1.28s WALL (      24 calls)
     PAW_symme    :      0.01s CPU      0.01s WALL (      47 calls)

     PWSCF        :   1m11.97s CPU   1m25.24s WALL


   This run was terminated on:  15:11:52  10Jun2021            

=------------------------------------------------------------------------------=
   JOB DONE.
=------------------------------------------------------------------------------=
