
     Program PWSCF v.6.6 starts on 10Jun2021 at 15:22:39 

     This program is part of the open-source Quantum ESPRESSO suite
     for quantum simulation of materials; please cite
         "P. Giannozzi et al., J. Phys.:Condens. Matter 21 395502 (2009);
         "P. Giannozzi et al., J. Phys.:Condens. Matter 29 465901 (2017);
          URL http://www.quantum-espresso.org", 
     in publications or presentations arising from this work. More details at
     http://www.quantum-espresso.org/quote

     Parallel version (MPI), running on     2 processors

     MPI processes distributed on     1 nodes
     R & G space division:  proc/nbgrp/npool/nimage =       2
     Fft bands division:     nmany     =       1
     Waiting for input...
     Reading input from standard input

     Current dimensions of program PWSCF are:
     Max number of different atomic species (ntypx) = 10
     Max number of k-points (npk) =  40000
     Max angular momentum in pseudopotentials (lmaxx) =  3
     file Nb.pz-spn-kjpaw_psl.1.0.0.UPF: wavefunction(s)  4S 4P 4D renormalized
     file S.pz-n-kjpaw_psl.0.1.UPF: wavefunction(s)  3P renormalized

     Subspace diagonalization in iterative solution of the eigenvalue problem:
     a serial algorithm will be used


     Parallelization info
     --------------------
     sticks:   dense  smooth     PW     G-vecs:    dense   smooth      PW
     Min         579     255     75               184729    55675    8855
     Max         580     256     76               184746    55702    8894
     Sum        1159     511    151               369475   111377   17749



     bravais-lattice index     =            4
     lattice parameter (alat)  =       6.4591  a.u.
     unit-cell volume          =    2731.0606 (a.u.)^3
     number of atoms/cell      =            3
     number of atomic types    =            2
     number of electrons       =        25.00
     number of Kohn-Sham states=           25
     kinetic-energy cutoff     =      45.0000  Ry
     charge density cutoff     =     400.0000  Ry
     convergence threshold     =      1.0E-08
     mixing beta               =       0.7000
     number of iterations used =            8  plain     mixing
     Exchange-correlation= SLA PZ NOGX NOGC
                           (   1   1   0   0   0   0   0)

     celldm(1)=   6.459084  celldm(2)=   0.000000  celldm(3)=  11.702750
     celldm(4)=   0.000000  celldm(5)=   0.000000  celldm(6)=   0.000000

     crystal axes: (cart. coord. in units of alat)
               a(1) = (   1.000000   0.000000   0.000000 )  
               a(2) = (  -0.500000   0.866025   0.000000 )  
               a(3) = (   0.000000   0.000000  11.702750 )  

     reciprocal axes: (cart. coord. in units 2 pi/alat)
               b(1) = (  1.000000  0.577350 -0.000000 )  
               b(2) = (  0.000000  1.154701  0.000000 )  
               b(3) = (  0.000000 -0.000000  0.085450 )  


     PseudoPot. # 1 for Nb read from file:
     ../Nb.pz-spn-kjpaw_psl.1.0.0.UPF
     MD5 check sum: 38c2e04b3cc915696ca8dc9f46a23270
     Pseudo is Projector augmented-wave + core cor, Zval = 13.0
     Generated using "atomic" code by A. Dal Corso v.6.2.2
     Shape of augmentation charge: PSQ
     Using radial grid of 1227 points,  6 beta functions with: 
                l(1) =   0
                l(2) =   0
                l(3) =   1
                l(4) =   1
                l(5) =   2
                l(6) =   2
     Q(r) pseudized with 0 coefficients 


     PseudoPot. # 2 for S  read from file:
     ../S.pz-n-kjpaw_psl.0.1.UPF
     MD5 check sum: c0b1682311cf098e03f7841691d9a679
     Pseudo is Projector augmented-wave + core cor, Zval =  6.0
     Generated using "atomic" code by A. Dal Corso v.5.0.2 svn rev. 9415
     Shape of augmentation charge: PSQ
     Using radial grid of 1151 points,  4 beta functions with: 
                l(1) =   0
                l(2) =   0
                l(3) =   1
                l(4) =   1
     Q(r) pseudized with 0 coefficients 


     atomic species   valence    mass     pseudopotential
        Nb            13.00    92.90600     Nb( 1.00)
        S              6.00    32.06500     S ( 1.00)

     12 Sym. Ops. (no inversion) found ( 6 have fractional translation)


                                    s                        frac. trans.

      isym =  1     identity                                     

 cryst.   s( 1) = (     1          0          0      )
                  (     0          1          0      )
                  (     0          0          1      )

 cart.    s( 1) = (  1.0000000  0.0000000  0.0000000 )
                  (  0.0000000  1.0000000  0.0000000 )
                  (  0.0000000  0.0000000  1.0000000 )


      isym =  2     180 deg rotation - cart. axis [0,1,0]        

 cryst.   s( 2) = (    -1          0          0      )    f =(  0.0000000 )
                  (     1          1          0      )       (  0.0000000 )
                  (     0          0         -1      )       (  0.5000000 )

 cart.    s( 2) = ( -1.0000000  0.0000000  0.0000000 )    f =(  0.0000000 )
                  (  0.0000000  1.0000000  0.0000000 )       (  0.0000000 )
                  (  0.0000000  0.0000000 -1.0000000 )       (  5.8513751 )


      isym =  3     120 deg rotation - cryst. axis [0,0,1]       

 cryst.   s( 3) = (     0          1          0      )
                  (    -1         -1          0      )
                  (     0          0          1      )

 cart.    s( 3) = ( -0.5000000 -0.8660254  0.0000000 )
                  (  0.8660254 -0.5000000  0.0000000 )
                  (  0.0000000  0.0000000  1.0000000 )


      isym =  4     120 deg rotation - cryst. axis [0,0,-1]      

 cryst.   s( 4) = (    -1         -1          0      )
                  (     1          0          0      )
                  (     0          0          1      )

 cart.    s( 4) = ( -0.5000000  0.8660254  0.0000000 )
                  ( -0.8660254 -0.5000000  0.0000000 )
                  (  0.0000000  0.0000000  1.0000000 )


      isym =  5     180 deg rotation - cryst. axis [1,-1,0]      

 cryst.   s( 5) = (     0         -1          0      )    f =(  0.0000000 )
                  (    -1          0          0      )       (  0.0000000 )
                  (     0          0         -1      )       (  0.5000000 )

 cart.    s( 5) = (  0.5000000 -0.8660254  0.0000000 )    f =(  0.0000000 )
                  ( -0.8660254 -0.5000000  0.0000000 )       (  0.0000000 )
                  (  0.0000000  0.0000000 -1.0000000 )       (  5.8513751 )


      isym =  6     180 deg rotation - cryst. axis [2,1,0]       

 cryst.   s( 6) = (     1          1          0      )    f =(  0.0000000 )
                  (     0         -1          0      )       (  0.0000000 )
                  (     0          0         -1      )       (  0.5000000 )

 cart.    s( 6) = (  0.5000000  0.8660254  0.0000000 )    f =( -0.0000000 )
                  (  0.8660254 -0.5000000  0.0000000 )       (  0.0000000 )
                  (  0.0000000  0.0000000 -1.0000000 )       (  5.8513751 )


      isym =  7     inv. 180 deg rotation - cart. axis [0,0,1]   

 cryst.   s( 7) = (     1          0          0      )    f =(  0.0000000 )
                  (     0          1          0      )       (  0.0000000 )
                  (     0          0         -1      )       (  0.5000000 )

 cart.    s( 7) = (  1.0000000  0.0000000  0.0000000 )    f =(  0.0000000 )
                  (  0.0000000  1.0000000  0.0000000 )       (  0.0000000 )
                  (  0.0000000  0.0000000 -1.0000000 )       (  5.8513751 )


      isym =  8     inv. 180 deg rotation - cart. axis [1,0,0]   

 cryst.   s( 8) = (    -1          0          0      )
                  (     1          1          0      )
                  (     0          0          1      )

 cart.    s( 8) = ( -1.0000000  0.0000000  0.0000000 )
                  (  0.0000000  1.0000000  0.0000000 )
                  (  0.0000000  0.0000000  1.0000000 )


      isym =  9     inv.  60 deg rotation - cryst. axis [0,0,1]  

 cryst.   s( 9) = (    -1         -1          0      )    f =(  0.0000000 )
                  (     1          0          0      )       (  0.0000000 )
                  (     0          0         -1      )       (  0.5000000 )

 cart.    s( 9) = ( -0.5000000  0.8660254  0.0000000 )    f =( -0.0000000 )
                  ( -0.8660254 -0.5000000  0.0000000 )       (  0.0000000 )
                  (  0.0000000  0.0000000 -1.0000000 )       (  5.8513751 )


      isym = 10     inv.  60 deg rotation - cryst. axis [0,0,-1] 

 cryst.   s(10) = (     0          1          0      )    f =(  0.0000000 )
                  (    -1         -1          0      )       (  0.0000000 )
                  (     0          0         -1      )       (  0.5000000 )

 cart.    s(10) = ( -0.5000000 -0.8660254  0.0000000 )    f =(  0.0000000 )
                  (  0.8660254 -0.5000000  0.0000000 )       (  0.0000000 )
                  (  0.0000000  0.0000000 -1.0000000 )       (  5.8513751 )


      isym = 11     inv. 180 deg rotation - cryst. axis [0,1,0]  

 cryst.   s(11) = (     1          1          0      )
                  (     0         -1          0      )
                  (     0          0          1      )

 cart.    s(11) = (  0.5000000  0.8660254  0.0000000 )
                  (  0.8660254 -0.5000000  0.0000000 )
                  (  0.0000000  0.0000000  1.0000000 )


      isym = 12     inv. 180 deg rotation - cryst. axis [1,1,0]  

 cryst.   s(12) = (     0         -1          0      )
                  (    -1          0          0      )
                  (     0          0          1      )

 cart.    s(12) = (  0.5000000 -0.8660254  0.0000000 )
                  ( -0.8660254 -0.5000000  0.0000000 )
                  (  0.0000000  0.0000000  1.0000000 )


     point group D_3h (-62m)
     there are  6 classes
     the character table:

       E     2C3   3C2   s_h   2S3   3s_v 
A'_1   1.00  1.00  1.00  1.00  1.00  1.00
A'_2   1.00  1.00 -1.00  1.00  1.00 -1.00
E'     2.00 -1.00  0.00  2.00 -1.00  0.00
A''1   1.00  1.00  1.00 -1.00 -1.00 -1.00
A''2   1.00  1.00 -1.00 -1.00 -1.00  1.00
E''    2.00 -1.00  0.00 -2.00  1.00  0.00

     the symmetry operations in each class and the name of the first element:

     E        1
          identity                                               
     2C3      3    4
          120 deg rotation - cryst. axis [0,0,1]                 
     3C2      2    6    5
          180 deg rotation - cart. axis [0,1,0]                  
     s_h      7
          inv. 180 deg rotation - cart. axis [0,0,1]             
     2S3      9   10
          inv.  60 deg rotation - cryst. axis [0,0,1]            
     3s_v     8   11   12
          inv. 180 deg rotation - cart. axis [1,0,0]             

   Cartesian axes

     site n.     atom                  positions (alat units)
         1           S   tau(   1) = (   0.0000000   0.5773503   4.3089526  )
         2           Nb  tau(   2) = (   0.0000000   0.0000000   2.9256875  )
         3           S   tau(   3) = (   0.0000000   0.5773503   1.5424225  )

   Crystallographic axes

     site n.     atom                  positions (cryst. coord.)
         1           S   tau(   1) = (  0.3333333  0.6666667  0.3682000  )
         2           Nb  tau(   2) = (  0.0000000  0.0000000  0.2500000  )
         3           S   tau(   3) = (  0.3333333  0.6666667  0.1318000  )

     number of k points=     4  Methfessel-Paxton smearing, width (Ry)=  0.0200
                       cart. coord. in units 2pi/alat
        k(    1) = (   0.0000000   0.0000000   0.0000000), wk =   0.1250000
        k(    2) = (   0.0000000   0.2886751   0.0000000), wk =   0.7500000
        k(    3) = (   0.0000000  -0.5773503   0.0000000), wk =   0.3750000
        k(    4) = (   0.2500000   0.4330127   0.0000000), wk =   0.7500000

                       cryst. coord.
        k(    1) = (   0.0000000   0.0000000   0.0000000), wk =   0.1250000
        k(    2) = (   0.0000000   0.2500000   0.0000000), wk =   0.7500000
        k(    3) = (   0.0000000  -0.5000000   0.0000000), wk =   0.3750000
        k(    4) = (   0.2500000   0.2500000   0.0000000), wk =   0.7500000

     Dense  grid:   369475 G-vectors     FFT dimensions: (  45,  45, 486)

     Smooth grid:   111377 G-vectors     FFT dimensions: (  27,  27, 324)

     Dynamical RAM for                 wfc:       2.66 MB

     Dynamical RAM for     wfc (w. buffer):      13.28 MB

     Dynamical RAM for           str. fact:       5.64 MB

     Dynamical RAM for           local pot:       0.00 MB

     Dynamical RAM for          nlocal pot:       3.61 MB

     Dynamical RAM for                qrad:       3.21 MB

     Dynamical RAM for          rho,v,vnew:      19.72 MB

     Dynamical RAM for               rhoin:       6.57 MB

     Dynamical RAM for            rho*nmix:      45.10 MB

     Dynamical RAM for           G-vectors:      11.00 MB

     Dynamical RAM for          h,s,v(r/c):       0.11 MB

     Dynamical RAM for          <psi|beta>:       0.01 MB

     Dynamical RAM for                 psi:       5.31 MB

     Dynamical RAM for                hpsi:       5.31 MB

     Dynamical RAM for                spsi:       5.31 MB

     Dynamical RAM for      wfcinit/wfcrot:       5.33 MB

     Dynamical RAM for           addusdens:     529.97 MB

     Estimated static dynamical RAM per process >     135.36 MB

     Estimated max dynamical RAM per process >     665.33 MB

     Estimated total dynamical RAM >       1.30 GB

     Initial potential from superposition of free atoms

     starting charge   24.99887, renormalised to   25.00000

     negative rho (up, down):  3.555E-04 0.000E+00
     Starting wfcs are   21 randomized atomic wfcs +    4 random wfcs
     Checking if some PAW data can be deallocated... 
       PAW data deallocated on    1 nodes for type:  1

     total cpu time spent up to now is        5.2 secs

     Self-consistent Calculation

     iteration #  1     ecut=    45.00 Ry     beta= 0.70
     Davidson diagonalization with overlap
     ethr =  1.00E-02,  avg # of iterations =  8.5

     negative rho (up, down):  4.264E-04 0.000E+00

     total cpu time spent up to now is       14.5 secs

     total energy              =    -451.73733926 Ry
     estimated scf accuracy    <       1.56099368 Ry

     iteration #  2     ecut=    45.00 Ry     beta= 0.70
     Davidson diagonalization with overlap
     ethr =  6.24E-03,  avg # of iterations =  6.2

     negative rho (up, down):  5.046E-04 0.000E+00

     total cpu time spent up to now is       23.6 secs

     total energy              =    -446.78136088 Ry
     estimated scf accuracy    <     193.19294081 Ry

     iteration #  3     ecut=    45.00 Ry     beta= 0.70
     Davidson diagonalization with overlap
     ethr =  6.24E-03,  avg # of iterations =  5.5

     negative rho (up, down):  4.618E-04 0.000E+00

     total cpu time spent up to now is       31.8 secs

     total energy              =    -452.72975825 Ry
     estimated scf accuracy    <       5.49842715 Ry

     iteration #  4     ecut=    45.00 Ry     beta= 0.70
     Davidson diagonalization with overlap
     ethr =  6.24E-03,  avg # of iterations =  1.8

     negative rho (up, down):  4.595E-04 0.000E+00

     total cpu time spent up to now is       38.2 secs

     total energy              =    -452.92127555 Ry
     estimated scf accuracy    <       2.55225226 Ry

     iteration #  5     ecut=    45.00 Ry     beta= 0.70
     Davidson diagonalization with overlap
     ethr =  6.24E-03,  avg # of iterations =  1.0

     negative rho (up, down):  4.614E-04 0.000E+00

     total cpu time spent up to now is       44.4 secs

     total energy              =    -452.98121909 Ry
     estimated scf accuracy    <       0.14859274 Ry

     iteration #  6     ecut=    45.00 Ry     beta= 0.70
     Davidson diagonalization with overlap
     ethr =  5.94E-04,  avg # of iterations =  8.8

     negative rho (up, down):  4.634E-04 0.000E+00

     total cpu time spent up to now is       51.7 secs

     total energy              =    -452.96920462 Ry
     estimated scf accuracy    <       0.13753152 Ry

     iteration #  7     ecut=    45.00 Ry     beta= 0.70
     Davidson diagonalization with overlap
     ethr =  5.50E-04,  avg # of iterations =  1.0

     negative rho (up, down):  4.655E-04 0.000E+00

     total cpu time spent up to now is       57.9 secs

     total energy              =    -452.98336962 Ry
     estimated scf accuracy    <       0.63947848 Ry

     iteration #  8     ecut=    45.00 Ry     beta= 0.70
     Davidson diagonalization with overlap
     ethr =  5.50E-04,  avg # of iterations =  1.0

     negative rho (up, down):  4.716E-04 0.000E+00

     total cpu time spent up to now is       64.1 secs

     total energy              =    -452.96967727 Ry
     estimated scf accuracy    <       0.47842571 Ry

     iteration #  9     ecut=    45.00 Ry     beta= 0.70
     Davidson diagonalization with overlap
     ethr =  5.50E-04,  avg # of iterations =  1.0

     negative rho (up, down):  4.693E-04 0.000E+00

     total cpu time spent up to now is       70.4 secs

     total energy              =    -452.97664581 Ry
     estimated scf accuracy    <       0.06104921 Ry

     iteration # 10     ecut=    45.00 Ry     beta= 0.70
     Davidson diagonalization with overlap
     ethr =  2.44E-04,  avg # of iterations =  2.8

     negative rho (up, down):  4.693E-04 0.000E+00

     total cpu time spent up to now is       76.8 secs

     total energy              =    -452.97787658 Ry
     estimated scf accuracy    <       0.02994518 Ry

     iteration # 11     ecut=    45.00 Ry     beta= 0.70
     Davidson diagonalization with overlap
     ethr =  1.20E-04,  avg # of iterations =  1.0

     negative rho (up, down):  4.693E-04 0.000E+00

     total cpu time spent up to now is       83.3 secs

     total energy              =    -452.97810763 Ry
     estimated scf accuracy    <       0.00038090 Ry

     iteration # 12     ecut=    45.00 Ry     beta= 0.70
     Davidson diagonalization with overlap
     ethr =  1.52E-06,  avg # of iterations =  6.2

     negative rho (up, down):  4.692E-04 0.000E+00

     total cpu time spent up to now is       90.6 secs

     total energy              =    -452.97811324 Ry
     estimated scf accuracy    <       0.00001013 Ry

     iteration # 13     ecut=    45.00 Ry     beta= 0.70
     Davidson diagonalization with overlap
     ethr =  4.05E-08,  avg # of iterations =  1.0

     negative rho (up, down):  4.692E-04 0.000E+00

     total cpu time spent up to now is       97.0 secs

     total energy              =    -452.97811305 Ry
     estimated scf accuracy    <       0.00001457 Ry

     iteration # 14     ecut=    45.00 Ry     beta= 0.70
     Davidson diagonalization with overlap
     ethr =  4.05E-08,  avg # of iterations =  1.0

     negative rho (up, down):  4.692E-04 0.000E+00

     total cpu time spent up to now is      103.5 secs

     total energy              =    -452.97811320 Ry
     estimated scf accuracy    <       0.00000004 Ry

     iteration # 15     ecut=    45.00 Ry     beta= 0.70
     Davidson diagonalization with overlap
     ethr =  1.59E-10,  avg # of iterations =  2.5

     negative rho (up, down):  4.692E-04 0.000E+00

     total cpu time spent up to now is      110.4 secs

     End of self-consistent calculation

          k = 0.0000 0.0000 0.0000 ( 13769 PWs)   bands (ev):

   -60.2667 -36.6485 -35.9892 -35.9892 -15.9243 -15.9243  -7.8916  -5.8834
    -5.8676  -4.8496  -4.2726  -4.2726  -3.2878  -3.2878  -3.1645  -3.1645
    -3.1643  -3.1643  -2.9866   1.4406   1.8444   2.2836   2.5215   2.5368
     3.0572

     occupation numbers 
     1.0000   1.0000   1.0000   1.0000   1.0000   1.0000   1.0000   1.0000
     1.0000   0.8707  -0.0222  -0.0222  -0.0000  -0.0000  -0.0000  -0.0000
    -0.0000  -0.0000  -0.0000  -0.0000  -0.0000  -0.0000  -0.0000  -0.0000
    -0.0000

          k = 0.0000 0.2887 0.0000 ( 13896 PWs)   bands (ev):

   -60.2566 -36.6351 -36.0983 -36.0159 -15.4925 -15.4925  -6.6505  -5.4166
    -5.3906  -5.1899  -5.1892  -4.7245  -4.7148  -4.4803  -3.6018  -3.6002
    -3.4949  -3.3192  -0.9867   2.4119   2.9074   3.1496   3.4137   3.6050
     3.9595

     occupation numbers 
     1.0000   1.0000   1.0000   1.0000   1.0000   1.0000   1.0000   1.0008
     1.0012   1.0164   1.0165   0.5349   0.5047  -0.0030  -0.0000  -0.0000
    -0.0000  -0.0000  -0.0000  -0.0000  -0.0000  -0.0000  -0.0000  -0.0000
    -0.0000

          k = 0.0000-0.5774 0.0000 ( 13978 PWs)   bands (ev):

   -60.2465 -36.6218 -36.2055 -36.0424 -14.9669 -14.9669  -6.8068  -6.8053
    -6.2256  -5.4362  -4.7514  -4.7129  -4.1203  -3.9752  -3.9742  -3.6919
    -2.6878  -2.0154   0.5465   0.8254   3.1807   3.1891   3.7848   3.9098
     4.5467

     occupation numbers 
     1.0000   1.0000   1.0000   1.0000   1.0000   1.0000   1.0000   1.0000
     1.0000   1.0006   0.6172   0.4987  -0.0043  -0.0004  -0.0004  -0.0000
    -0.0000  -0.0000  -0.0000  -0.0000  -0.0000  -0.0000  -0.0000  -0.0000
    -0.0000

          k = 0.2500 0.4330 0.0000 ( 13941 PWs)   bands (ev):

   -60.2464 -36.6218 -36.1651 -36.0837 -14.9764 -14.9764  -6.2161  -6.2147
    -5.1702  -5.1527  -4.9728  -4.9550  -4.9549  -4.7158  -4.7118  -4.1927
    -4.1221  -1.1280   1.0329   1.9490   3.3071   3.7201   4.0397   4.4700
     4.8963

     occupation numbers 
     1.0000   1.0000   1.0000   1.0000   1.0000   1.0000   1.0000   1.0000
     1.0195   1.0224   1.0196   1.0093   1.0092   0.5080   0.4955  -0.0105
    -0.0044  -0.0000  -0.0000  -0.0000  -0.0000  -0.0000  -0.0000  -0.0000
    -0.0000

     the Fermi energy is    -4.7133 ev

!    total energy              =    -452.97811321 Ry

     total all-electron energy =     -9223.182624 Ry
     estimated scf accuracy    <          3.8E-09 Ry
     smearing contrib. (-TS)   =      -0.00519354 Ry
     internal energy E=F+TS    =    -452.97291966 Ry

     The total energy is F=E-TS. E is the sum of the following terms:
     one-electron contribution =   -1481.67367974 Ry
     hartree contribution      =     740.34603142 Ry
     xc contribution           =     -31.33532032 Ry
     ewald contribution        =     613.75036080 Ry
     one-center paw contrib.   =    -294.06031182 Ry
      -> PAW hartree energy AE =      81.20166229 Ry
      -> PAW hartree energy PS =     -80.71593676 Ry
      -> PAW xc energy AE      =    -275.64774093 Ry
      -> PAW xc energy PS      =      22.77273329 Ry
      -> total E_H with PAW    =     740.83175696 Ry
      -> total E_XC with PAW   =    -284.21032796 Ry

     convergence has been achieved in  15 iterations

     Writing output data file ./tmp/NbS2.save/

     init_run     :      3.76s CPU      4.06s WALL (       1 calls)
     electrons    :     96.93s CPU    105.34s WALL (       1 calls)

     Called by init_run:
     wfcinit      :      1.11s CPU      1.12s WALL (       1 calls)
     wfcinit:atom :      0.01s CPU      0.01s WALL (       4 calls)
     wfcinit:wfcr :      1.08s CPU      1.09s WALL (       4 calls)
     potinit      :      0.63s CPU      0.69s WALL (       1 calls)
     hinit0       :      0.99s CPU      1.01s WALL (       1 calls)

     Called by electrons:
     c_bands      :     46.03s CPU     46.58s WALL (      15 calls)
     sum_band     :     32.30s CPU     36.56s WALL (      15 calls)
     v_of_rho     :      1.37s CPU      1.42s WALL (      16 calls)
     v_h          :      0.75s CPU      0.79s WALL (      16 calls)
     v_xc         :      0.62s CPU      0.63s WALL (      16 calls)
     newd         :     14.77s CPU     18.42s WALL (      16 calls)
     PAW_pot      :      0.86s CPU      0.86s WALL (      16 calls)
     mix_rho      :      1.65s CPU      1.69s WALL (      15 calls)

     Called by c_bands:
     init_us_2    :      0.35s CPU      0.37s WALL (     124 calls)
     cegterg      :     45.30s CPU     45.81s WALL (      60 calls)

     Called by sum_band:
     sum_band:wei :      0.00s CPU      0.00s WALL (      15 calls)
     sum_band:loo :      8.17s CPU      8.26s WALL (      15 calls)
     sum_band:buf :      0.08s CPU      0.09s WALL (      60 calls)
     sum_band:ini :      0.17s CPU      0.17s WALL (      60 calls)
     sum_band:cal :      0.88s CPU      0.88s WALL (      60 calls)
     sum_band:bec :      0.00s CPU      0.00s WALL (      60 calls)
     addusdens    :     22.98s CPU     27.09s WALL (      15 calls)
     addusd:skk   :      0.05s CPU      0.06s WALL (      30 calls)
     addusd:dgemm :      5.89s CPU      9.26s WALL (      30 calls)
     addusd:qvan2 :     15.90s CPU     15.92s WALL (      30 calls)

     Called by *egterg:
     cdiaghg      :      0.21s CPU      0.21s WALL (     257 calls)
     cegterg:over :      2.93s CPU      2.94s WALL (     197 calls)
     cegterg:upda :      1.76s CPU      1.78s WALL (     197 calls)
     cegterg:last :      3.75s CPU      3.78s WALL (      98 calls)
     h_psi        :     33.84s CPU     34.29s WALL (     261 calls)
     s_psi        :      2.09s CPU      2.10s WALL (     261 calls)
     g_psi        :      0.08s CPU      0.08s WALL (     197 calls)

     Called by h_psi:
     h_psi:calbec :      2.22s CPU      2.23s WALL (     261 calls)
     vloc_psi     :     29.47s CPU     29.90s WALL (     261 calls)
     add_vuspsi   :      1.96s CPU      1.96s WALL (     261 calls)

     General routines
     calbec       :      3.10s CPU      3.11s WALL (     321 calls)
     fft          :      3.54s CPU      3.65s WALL (      94 calls)
     ffts         :      0.25s CPU      0.25s WALL (      31 calls)
     fftw         :     30.19s CPU     30.63s WALL (    8788 calls)
     interpolate  :      0.78s CPU      0.81s WALL (      16 calls)

     Parallel routines
     fft_scatt_xy :      5.45s CPU      5.52s WALL (    8913 calls)
     fft_scatt_yz :      3.44s CPU      3.56s WALL (    8913 calls)

     PAW routines
     PAW_pot      :      0.86s CPU      0.86s WALL (      16 calls)
     PAW_symme    :      0.01s CPU      0.01s WALL (      31 calls)

     PWSCF        :   1m41.87s CPU   1m50.80s WALL


   This run was terminated on:  15:24:30  10Jun2021            

=------------------------------------------------------------------------------=
   JOB DONE.
=------------------------------------------------------------------------------=
