
     Program PWSCF v.6.6 starts on 10Jun2021 at 15: 1:23 

     This program is part of the open-source Quantum ESPRESSO suite
     for quantum simulation of materials; please cite
         "P. Giannozzi et al., J. Phys.:Condens. Matter 21 395502 (2009);
         "P. Giannozzi et al., J. Phys.:Condens. Matter 29 465901 (2017);
          URL http://www.quantum-espresso.org", 
     in publications or presentations arising from this work. More details at
     http://www.quantum-espresso.org/quote

     Parallel version (MPI), running on     2 processors

     MPI processes distributed on     1 nodes
     R & G space division:  proc/nbgrp/npool/nimage =       2
     Fft bands division:     nmany     =       1
     Waiting for input...
     Reading input from standard input

     Current dimensions of program PWSCF are:
     Max number of different atomic species (ntypx) = 10
     Max number of k-points (npk) =  40000
     Max angular momentum in pseudopotentials (lmaxx) =  3
     file Nb.pz-spn-kjpaw_psl.1.0.0.UPF: wavefunction(s)  4S 4P 4D renormalized
     file S.pz-n-kjpaw_psl.0.1.UPF: wavefunction(s)  3P renormalized

     Subspace diagonalization in iterative solution of the eigenvalue problem:
     a serial algorithm will be used


     Parallelization info
     --------------------
     sticks:   dense  smooth     PW     G-vecs:    dense   smooth      PW
     Min         579     225     69                54809    13749    2245
     Max         580     226     70                54816    13756    2250
     Sum        1159     451    139               109625    27505    4495



     bravais-lattice index     =            4
     lattice parameter (alat)  =       6.4591  a.u.
     unit-cell volume          =     809.7595 (a.u.)^3
     number of atoms/cell      =            3
     number of atomic types    =            2
     number of electrons       =        25.00
     number of Kohn-Sham states=           25
     kinetic-energy cutoff     =      40.0000  Ry
     charge density cutoff     =     400.0000  Ry
     convergence threshold     =      1.0E-08
     mixing beta               =       0.7000
     number of iterations used =            8  plain     mixing
     Exchange-correlation= SLA PZ NOGX NOGC
                           (   1   1   0   0   0   0   0)

     celldm(1)=   6.459084  celldm(2)=   0.000000  celldm(3)=   3.469865
     celldm(4)=   0.000000  celldm(5)=   0.000000  celldm(6)=   0.000000

     crystal axes: (cart. coord. in units of alat)
               a(1) = (   1.000000   0.000000   0.000000 )  
               a(2) = (  -0.500000   0.866025   0.000000 )  
               a(3) = (   0.000000   0.000000   3.469865 )  

     reciprocal axes: (cart. coord. in units 2 pi/alat)
               b(1) = (  1.000000  0.577350 -0.000000 )  
               b(2) = (  0.000000  1.154701  0.000000 )  
               b(3) = (  0.000000 -0.000000  0.288196 )  


     PseudoPot. # 1 for Nb read from file:
     ./Nb.pz-spn-kjpaw_psl.1.0.0.UPF
     MD5 check sum: 38c2e04b3cc915696ca8dc9f46a23270
     Pseudo is Projector augmented-wave + core cor, Zval = 13.0
     Generated using "atomic" code by A. Dal Corso v.6.2.2
     Shape of augmentation charge: PSQ
     Using radial grid of 1227 points,  6 beta functions with: 
                l(1) =   0
                l(2) =   0
                l(3) =   1
                l(4) =   1
                l(5) =   2
                l(6) =   2
     Q(r) pseudized with 0 coefficients 


     PseudoPot. # 2 for S  read from file:
     ./S.pz-n-kjpaw_psl.0.1.UPF
     MD5 check sum: c0b1682311cf098e03f7841691d9a679
     Pseudo is Projector augmented-wave + core cor, Zval =  6.0
     Generated using "atomic" code by A. Dal Corso v.5.0.2 svn rev. 9415
     Shape of augmentation charge: PSQ
     Using radial grid of 1151 points,  4 beta functions with: 
                l(1) =   0
                l(2) =   0
                l(3) =   1
                l(4) =   1
     Q(r) pseudized with 0 coefficients 


     atomic species   valence    mass     pseudopotential
        Nb            13.00    92.90600     Nb( 1.00)
        S              6.00    32.06500     S ( 1.00)

     12 Sym. Ops. (no inversion) found ( 6 have fractional translation)


                                    s                        frac. trans.

      isym =  1     identity                                     

 cryst.   s( 1) = (     1          0          0      )
                  (     0          1          0      )
                  (     0          0          1      )

 cart.    s( 1) = (  1.0000000  0.0000000  0.0000000 )
                  (  0.0000000  1.0000000  0.0000000 )
                  (  0.0000000  0.0000000  1.0000000 )


      isym =  2     180 deg rotation - cart. axis [0,1,0]        

 cryst.   s( 2) = (    -1          0          0      )    f =(  0.0000000 )
                  (     1          1          0      )       (  0.0000000 )
                  (     0          0         -1      )       (  0.5000000 )

 cart.    s( 2) = ( -1.0000000  0.0000000  0.0000000 )    f =(  0.0000000 )
                  (  0.0000000  1.0000000  0.0000000 )       (  0.0000000 )
                  (  0.0000000  0.0000000 -1.0000000 )       (  1.7349327 )


      isym =  3     120 deg rotation - cryst. axis [0,0,1]       

 cryst.   s( 3) = (     0          1          0      )
                  (    -1         -1          0      )
                  (     0          0          1      )

 cart.    s( 3) = ( -0.5000000 -0.8660254  0.0000000 )
                  (  0.8660254 -0.5000000  0.0000000 )
                  (  0.0000000  0.0000000  1.0000000 )


      isym =  4     120 deg rotation - cryst. axis [0,0,-1]      

 cryst.   s( 4) = (    -1         -1          0      )
                  (     1          0          0      )
                  (     0          0          1      )

 cart.    s( 4) = ( -0.5000000  0.8660254  0.0000000 )
                  ( -0.8660254 -0.5000000  0.0000000 )
                  (  0.0000000  0.0000000  1.0000000 )


      isym =  5     180 deg rotation - cryst. axis [1,-1,0]      

 cryst.   s( 5) = (     0         -1          0      )    f =(  0.0000000 )
                  (    -1          0          0      )       (  0.0000000 )
                  (     0          0         -1      )       (  0.5000000 )

 cart.    s( 5) = (  0.5000000 -0.8660254  0.0000000 )    f =(  0.0000000 )
                  ( -0.8660254 -0.5000000  0.0000000 )       (  0.0000000 )
                  (  0.0000000  0.0000000 -1.0000000 )       (  1.7349327 )


      isym =  6     180 deg rotation - cryst. axis [2,1,0]       

 cryst.   s( 6) = (     1          1          0      )    f =(  0.0000000 )
                  (     0         -1          0      )       (  0.0000000 )
                  (     0          0         -1      )       (  0.5000000 )

 cart.    s( 6) = (  0.5000000  0.8660254  0.0000000 )    f =( -0.0000000 )
                  (  0.8660254 -0.5000000  0.0000000 )       (  0.0000000 )
                  (  0.0000000  0.0000000 -1.0000000 )       (  1.7349327 )


      isym =  7     inv. 180 deg rotation - cart. axis [0,0,1]   

 cryst.   s( 7) = (     1          0          0      )    f =(  0.0000000 )
                  (     0          1          0      )       (  0.0000000 )
                  (     0          0         -1      )       (  0.5000000 )

 cart.    s( 7) = (  1.0000000  0.0000000  0.0000000 )    f =(  0.0000000 )
                  (  0.0000000  1.0000000  0.0000000 )       (  0.0000000 )
                  (  0.0000000  0.0000000 -1.0000000 )       (  1.7349327 )


      isym =  8     inv. 180 deg rotation - cart. axis [1,0,0]   

 cryst.   s( 8) = (    -1          0          0      )
                  (     1          1          0      )
                  (     0          0          1      )

 cart.    s( 8) = ( -1.0000000  0.0000000  0.0000000 )
                  (  0.0000000  1.0000000  0.0000000 )
                  (  0.0000000  0.0000000  1.0000000 )


      isym =  9     inv.  60 deg rotation - cryst. axis [0,0,1]  

 cryst.   s( 9) = (    -1         -1          0      )    f =(  0.0000000 )
                  (     1          0          0      )       (  0.0000000 )
                  (     0          0         -1      )       (  0.5000000 )

 cart.    s( 9) = ( -0.5000000  0.8660254  0.0000000 )    f =( -0.0000000 )
                  ( -0.8660254 -0.5000000  0.0000000 )       (  0.0000000 )
                  (  0.0000000  0.0000000 -1.0000000 )       (  1.7349327 )


      isym = 10     inv.  60 deg rotation - cryst. axis [0,0,-1] 

 cryst.   s(10) = (     0          1          0      )    f =(  0.0000000 )
                  (    -1         -1          0      )       (  0.0000000 )
                  (     0          0         -1      )       (  0.5000000 )

 cart.    s(10) = ( -0.5000000 -0.8660254  0.0000000 )    f =(  0.0000000 )
                  (  0.8660254 -0.5000000  0.0000000 )       (  0.0000000 )
                  (  0.0000000  0.0000000 -1.0000000 )       (  1.7349327 )


      isym = 11     inv. 180 deg rotation - cryst. axis [0,1,0]  

 cryst.   s(11) = (     1          1          0      )
                  (     0         -1          0      )
                  (     0          0          1      )

 cart.    s(11) = (  0.5000000  0.8660254  0.0000000 )
                  (  0.8660254 -0.5000000  0.0000000 )
                  (  0.0000000  0.0000000  1.0000000 )


      isym = 12     inv. 180 deg rotation - cryst. axis [1,1,0]  

 cryst.   s(12) = (     0         -1          0      )
                  (    -1          0          0      )
                  (     0          0          1      )

 cart.    s(12) = (  0.5000000 -0.8660254  0.0000000 )
                  ( -0.8660254 -0.5000000  0.0000000 )
                  (  0.0000000  0.0000000  1.0000000 )


     point group D_3h (-62m)
     there are  6 classes
     the character table:

       E     2C3   3C2   s_h   2S3   3s_v 
A'_1   1.00  1.00  1.00  1.00  1.00  1.00
A'_2   1.00  1.00 -1.00  1.00  1.00 -1.00
E'     2.00 -1.00  0.00  2.00 -1.00  0.00
A''1   1.00  1.00  1.00 -1.00 -1.00 -1.00
A''2   1.00  1.00 -1.00 -1.00 -1.00  1.00
E''    2.00 -1.00  0.00 -2.00  1.00  0.00

     the symmetry operations in each class and the name of the first element:

     E        1
          identity                                               
     2C3      3    4
          120 deg rotation - cryst. axis [0,0,1]                 
     3C2      2    6    5
          180 deg rotation - cart. axis [0,1,0]                  
     s_h      7
          inv. 180 deg rotation - cart. axis [0,0,1]             
     2S3      9   10
          inv.  60 deg rotation - cryst. axis [0,0,1]            
     3s_v     8   11   12
          inv. 180 deg rotation - cart. axis [1,0,0]             

   Cartesian axes

     site n.     atom                  positions (alat units)
         1           S   tau(   1) = (   0.0000000   0.5773503   1.2776044  )
         2           Nb  tau(   2) = (   0.0000000   0.0000000   0.8674664  )
         3           S   tau(   3) = (   0.0000000   0.5773503   0.4573283  )

   Crystallographic axes

     site n.     atom                  positions (cryst. coord.)
         1           S   tau(   1) = (  0.3333333  0.6666667  0.3682000  )
         2           Nb  tau(   2) = (  0.0000000  0.0000000  0.2500000  )
         3           S   tau(   3) = (  0.3333333  0.6666667  0.1318000  )

     number of k points=     4  Methfessel-Paxton smearing, width (Ry)=  0.0200
                       cart. coord. in units 2pi/alat
        k(    1) = (   0.0000000   0.0000000   0.0000000), wk =   0.1250000
        k(    2) = (   0.0000000   0.2886751   0.0000000), wk =   0.7500000
        k(    3) = (   0.0000000  -0.5773503   0.0000000), wk =   0.3750000
        k(    4) = (   0.2500000   0.4330127   0.0000000), wk =   0.7500000

                       cryst. coord.
        k(    1) = (   0.0000000   0.0000000   0.0000000), wk =   0.1250000
        k(    2) = (   0.0000000   0.2500000   0.0000000), wk =   0.7500000
        k(    3) = (   0.0000000  -0.5000000   0.0000000), wk =   0.3750000
        k(    4) = (   0.2500000   0.2500000   0.0000000), wk =   0.7500000

     Dense  grid:   109625 G-vectors     FFT dimensions: (  45,  45, 144)

     Smooth grid:    27505 G-vectors     FFT dimensions: (  25,  25,  96)

     Dynamical RAM for                 wfc:       0.66 MB

     Dynamical RAM for     wfc (w. buffer):       3.30 MB

     Dynamical RAM for           str. fact:       1.67 MB

     Dynamical RAM for           local pot:       0.00 MB

     Dynamical RAM for          nlocal pot:       0.90 MB

     Dynamical RAM for                qrad:       3.21 MB

     Dynamical RAM for          rho,v,vnew:       5.85 MB

     Dynamical RAM for               rhoin:       1.95 MB

     Dynamical RAM for            rho*nmix:      13.38 MB

     Dynamical RAM for           G-vectors:       3.24 MB

     Dynamical RAM for          h,s,v(r/c):       0.11 MB

     Dynamical RAM for          <psi|beta>:       0.01 MB

     Dynamical RAM for                 psi:       1.32 MB

     Dynamical RAM for                hpsi:       1.32 MB

     Dynamical RAM for                spsi:       1.32 MB

     Dynamical RAM for      wfcinit/wfcrot:       1.33 MB

     Dynamical RAM for           addusdens:     157.25 MB

     Estimated static dynamical RAM per process >      41.57 MB

     Estimated max dynamical RAM per process >     198.82 MB

     Estimated total dynamical RAM >     397.63 MB

     Initial potential from superposition of free atoms

     starting charge   24.99887, renormalised to   25.00000

     negative rho (up, down):  2.895E-05 0.000E+00
     Starting wfcs are   21 randomized atomic wfcs +    4 random wfcs
     Checking if some PAW data can be deallocated... 
       PAW data deallocated on    1 nodes for type:  1

     total cpu time spent up to now is        2.3 secs

     Self-consistent Calculation

     iteration #  1     ecut=    40.00 Ry     beta= 0.70
     Davidson diagonalization with overlap
     ethr =  1.00E-02,  avg # of iterations =  6.5

     Threshold (ethr) on eigenvalues was too large:
     Diagonalizing with lowered threshold

     Davidson diagonalization with overlap
     ethr =  5.52E-04,  avg # of iterations =  2.5

     negative rho (up, down):  6.430E-05 0.000E+00

     total cpu time spent up to now is        4.6 secs

     total energy              =    -453.87642781 Ry
     estimated scf accuracy    <       0.14304869 Ry

     iteration #  2     ecut=    40.00 Ry     beta= 0.70
     Davidson diagonalization with overlap
     ethr =  5.72E-04,  avg # of iterations =  3.5

     negative rho (up, down):  6.499E-05 0.000E+00

     total cpu time spent up to now is        5.8 secs

     total energy              =    -453.91380649 Ry
     estimated scf accuracy    <       0.06549880 Ry

     iteration #  3     ecut=    40.00 Ry     beta= 0.70
     Davidson diagonalization with overlap
     ethr =  2.62E-04,  avg # of iterations =  2.0

     negative rho (up, down):  6.957E-05 0.000E+00

     total cpu time spent up to now is        7.0 secs

     total energy              =    -453.92739792 Ry
     estimated scf accuracy    <       0.00149072 Ry

     iteration #  4     ecut=    40.00 Ry     beta= 0.70
     Davidson diagonalization with overlap
     ethr =  5.96E-06,  avg # of iterations =  5.8

     negative rho (up, down):  7.193E-05 0.000E+00

     total cpu time spent up to now is        8.3 secs

     total energy              =    -453.92727950 Ry
     estimated scf accuracy    <       0.00502501 Ry

     iteration #  5     ecut=    40.00 Ry     beta= 0.70
     Davidson diagonalization with overlap
     ethr =  5.96E-06,  avg # of iterations =  2.0

     negative rho (up, down):  7.249E-05 0.000E+00

     total cpu time spent up to now is        9.5 secs

     total energy              =    -453.92808880 Ry
     estimated scf accuracy    <       0.00004419 Ry

     iteration #  6     ecut=    40.00 Ry     beta= 0.70
     Davidson diagonalization with overlap
     ethr =  1.77E-07,  avg # of iterations =  2.2

     negative rho (up, down):  7.289E-05 0.000E+00

     total cpu time spent up to now is       10.7 secs

     total energy              =    -453.92809835 Ry
     estimated scf accuracy    <       0.00000084 Ry

     iteration #  7     ecut=    40.00 Ry     beta= 0.70
     Davidson diagonalization with overlap
     ethr =  3.34E-09,  avg # of iterations =  3.5

     negative rho (up, down):  7.303E-05 0.000E+00

     total cpu time spent up to now is       11.9 secs

     total energy              =    -453.92809879 Ry
     estimated scf accuracy    <       0.00000005 Ry

     iteration #  8     ecut=    40.00 Ry     beta= 0.70
     Davidson diagonalization with overlap
     ethr =  2.01E-10,  avg # of iterations =  2.8

     negative rho (up, down):  7.305E-05 0.000E+00

     total cpu time spent up to now is       13.0 secs

     End of self-consistent calculation

          k = 0.0000 0.0000 0.0000 (  3513 PWs)   bands (ev):

   -53.6327 -29.8882 -29.6977 -29.6977 -12.6851 -10.8002  -4.1086  -2.0744
    -2.0744  -0.7462  -0.7462   0.4298   2.6243   3.9835   3.9835   4.6789
     4.6789   5.7766   6.8127   7.8895   9.2466  10.0334  11.2268  11.2268
    14.2466

     occupation numbers 
     1.0000   1.0000   1.0000   1.0000   1.0000   1.0000   1.0000   1.0000
     1.0000   1.0000   1.0000   1.0015  -0.0000  -0.0000  -0.0000  -0.0000
    -0.0000  -0.0000  -0.0000  -0.0000  -0.0000  -0.0000  -0.0000  -0.0000
    -0.0000

          k = 0.0000 0.2887 0.0000 (  3493 PWs)   bands (ev):

   -53.6184 -29.8705 -29.8525 -29.7355 -12.0378 -10.7170  -3.7673  -2.7964
    -2.0139  -1.5676  -1.3463   0.6060   1.3220   4.0529   4.3519   4.3644
     5.2993   7.5499   8.7162   8.8241   9.9585  10.4535  11.0673  12.1901
    12.8765

     occupation numbers 
     1.0000   1.0000   1.0000   1.0000   1.0000   1.0000   1.0000   1.0000
     1.0000   1.0000   1.0000   1.0147   0.0008  -0.0000  -0.0000  -0.0000
    -0.0000  -0.0000  -0.0000  -0.0000  -0.0000  -0.0000  -0.0000  -0.0000
    -0.0000

          k = 0.0000-0.5774 0.0000 (  3402 PWs)   bands (ev):

   -53.6041 -30.0373 -29.8163 -29.7728 -11.3204 -10.6242  -4.1969  -2.8755
    -2.6896  -2.1518  -0.5215   0.3221   1.0374   3.7339   3.9911   5.4076
     6.2597   7.4605   9.2422   9.5486  10.2086  10.7157  11.3775  11.7992
    11.8044

     occupation numbers 
     1.0000   1.0000   1.0000   1.0000   1.0000   1.0000   1.0000   1.0000
     1.0000   1.0000   1.0000   1.0002   0.6713  -0.0000  -0.0000  -0.0000
    -0.0000  -0.0000  -0.0000  -0.0000  -0.0000  -0.0000  -0.0000  -0.0000
    -0.0000

          k = 0.2500 0.4330 0.0000 (  3443 PWs)   bands (ev):

   -53.6041 -29.9779 -29.8347 -29.8164 -11.3237 -10.6025  -3.6956  -3.4451
    -2.4707  -1.6681  -1.5033   0.3467   0.8848   3.4319   4.5498   5.0418
     6.3703   8.6679   9.4309   9.6492  10.4580  10.6075  11.8530  12.1908
    12.2657

     occupation numbers 
     1.0000   1.0000   1.0000   1.0000   1.0000   1.0000   1.0000   1.0000
     1.0000   1.0000   1.0000   1.0004   0.9815  -0.0000  -0.0000  -0.0000
    -0.0000  -0.0000  -0.0000  -0.0000  -0.0000  -0.0000  -0.0000  -0.0000
    -0.0000

     the Fermi energy is     1.0938 ev

!    total energy              =    -453.92809880 Ry

     total all-electron energy =     -9224.132610 Ry
     estimated scf accuracy    <          1.3E-09 Ry
     smearing contrib. (-TS)   =       0.00020315 Ry
     internal energy E=F+TS    =    -453.92830196 Ry

     The total energy is F=E-TS. E is the sum of the following terms:
     one-electron contribution =    -393.44440483 Ry
     hartree contribution      =     201.46127153 Ry
     xc contribution           =     -32.72185845 Ry
     ewald contribution        =      64.91414031 Ry
     one-center paw contrib.   =    -294.13745052 Ry
      -> PAW hartree energy AE =      86.19615692 Ry
      -> PAW hartree energy PS =     -85.71271071 Ry
      -> PAW xc energy AE      =    -276.43626715 Ry
      -> PAW xc energy PS      =      23.51623882 Ry
      -> total E_H with PAW    =     201.94471774 Ry
      -> total E_XC with PAW   =    -285.64188677 Ry

     convergence has been achieved in   8 iterations

     Writing output data file ./tmp/NbS2.save/

     init_run     :      1.13s CPU      1.21s WALL (       1 calls)
     electrons    :      9.70s CPU     10.73s WALL (       1 calls)

     Called by init_run:
     wfcinit      :      0.16s CPU      0.17s WALL (       1 calls)
     wfcinit:atom :      0.00s CPU      0.00s WALL (       4 calls)
     wfcinit:wfcr :      0.15s CPU      0.16s WALL (       4 calls)
     potinit      :      0.22s CPU      0.23s WALL (       1 calls)
     hinit0       :      0.50s CPU      0.51s WALL (       1 calls)

     Called by electrons:
     c_bands      :      4.35s CPU      4.43s WALL (       9 calls)
     sum_band     :      2.93s CPU      3.53s WALL (       9 calls)
     v_of_rho     :      0.19s CPU      0.20s WALL (       9 calls)
     v_h          :      0.09s CPU      0.10s WALL (       9 calls)
     v_xc         :      0.09s CPU      0.10s WALL (       9 calls)
     newd         :      1.76s CPU      2.13s WALL (       9 calls)
     PAW_pot      :      0.46s CPU      0.46s WALL (       9 calls)
     mix_rho      :      0.16s CPU      0.16s WALL (       9 calls)

     Called by c_bands:
     init_us_2    :      0.05s CPU      0.05s WALL (      76 calls)
     cegterg      :      4.26s CPU      4.33s WALL (      36 calls)

     Called by sum_band:
     sum_band:wei :      0.00s CPU      0.00s WALL (       9 calls)
     sum_band:loo :      0.62s CPU      0.64s WALL (       9 calls)
     sum_band:buf :      0.01s CPU      0.01s WALL (      36 calls)
     sum_band:ini :      0.02s CPU      0.02s WALL (      36 calls)
     sum_band:cal :      0.09s CPU      0.09s WALL (      36 calls)
     sum_band:bec :      0.00s CPU      0.00s WALL (      36 calls)
     addusdens    :      2.16s CPU      2.73s WALL (       9 calls)
     addusd:skk   :      0.01s CPU      0.01s WALL (      18 calls)
     addusd:dgemm :      0.51s CPU      1.04s WALL (      18 calls)
     addusd:qvan2 :      1.47s CPU      1.47s WALL (      18 calls)

     Called by *egterg:
     cdiaghg      :      0.12s CPU      0.12s WALL (     155 calls)
     cegterg:over :      0.34s CPU      0.34s WALL (     123 calls)
     cegterg:upda :      0.17s CPU      0.17s WALL (     123 calls)
     cegterg:last :      0.43s CPU      0.43s WALL (      76 calls)
     h_psi        :      2.98s CPU      3.05s WALL (     163 calls)
     s_psi        :      0.18s CPU      0.18s WALL (     163 calls)
     g_psi        :      0.01s CPU      0.01s WALL (     123 calls)

     Called by h_psi:
     h_psi:calbec :      0.25s CPU      0.26s WALL (     163 calls)
     vloc_psi     :      2.54s CPU      2.59s WALL (     163 calls)
     add_vuspsi   :      0.17s CPU      0.18s WALL (     163 calls)

     General routines
     calbec       :      0.34s CPU      0.36s WALL (     199 calls)
     fft          :      0.41s CPU      0.44s WALL (      53 calls)
     ffts         :      0.02s CPU      0.02s WALL (      18 calls)
     fftw         :      2.81s CPU      2.86s WALL (    5702 calls)
     interpolate  :      0.09s CPU      0.10s WALL (       9 calls)

     Parallel routines
     fft_scatt_xy :      0.35s CPU      0.36s WALL (    5773 calls)
     fft_scatt_yz :      0.31s CPU      0.33s WALL (    5773 calls)

     PAW routines
     PAW_pot      :      0.46s CPU      0.46s WALL (       9 calls)
     PAW_symme    :      0.00s CPU      0.00s WALL (      18 calls)

     PWSCF        :     11.91s CPU     13.12s WALL


   This run was terminated on:  15: 1:37  10Jun2021            

=------------------------------------------------------------------------------=
   JOB DONE.
=------------------------------------------------------------------------------=
