
     Program PWSCF v.6.6 starts on 14Jun2021 at 17:40:43 

     This program is part of the open-source Quantum ESPRESSO suite
     for quantum simulation of materials; please cite
         "P. Giannozzi et al., J. Phys.:Condens. Matter 21 395502 (2009);
         "P. Giannozzi et al., J. Phys.:Condens. Matter 29 465901 (2017);
          URL http://www.quantum-espresso.org", 
     in publications or presentations arising from this work. More details at
     http://www.quantum-espresso.org/quote

     Parallel version (MPI), running on     2 processors

     MPI processes distributed on     1 nodes
     R & G space division:  proc/nbgrp/npool/nimage =       2
     Fft bands division:     nmany     =       1
     Waiting for input...
     Reading input from standard input

     Current dimensions of program PWSCF are:
     Max number of different atomic species (ntypx) = 10
     Max number of k-points (npk) =  40000
     Max angular momentum in pseudopotentials (lmaxx) =  3
     file Nb.pz-spn-kjpaw_psl.1.0.0.UPF: wavefunction(s)  4S 4P 4D renormalized
     file S.pz-n-kjpaw_psl.0.1.UPF: wavefunction(s)  3P renormalized

     Subspace diagonalization in iterative solution of the eigenvalue problem:
     a serial algorithm will be used


     Parallelization info
     --------------------
     sticks:   dense  smooth     PW     G-vecs:    dense   smooth      PW
     Min         534     210     60                85019    21488    3554
     Max         535     211     61                85022    21517    3573
     Sum        1069     421    121               170041    43005    7127



     bravais-lattice index     =            4
     lattice parameter (alat)  =       6.2006  a.u.
     unit-cell volume          =    1258.4114 (a.u.)^3
     number of atoms/cell      =            6
     number of atomic types    =            2
     number of electrons       =        50.00
     number of Kohn-Sham states=           60
     kinetic-energy cutoff     =      40.0000  Ry
     charge density cutoff     =     400.0000  Ry
     convergence threshold     =      1.0E-08
     mixing beta               =       0.7000
     number of iterations used =            8  plain     mixing
     Exchange-correlation= SLA PZ NOGX NOGC
                           (   1   1   0   0   0   0   0)

     celldm(1)=   6.200569  celldm(2)=   0.000000  celldm(3)=   6.095331
     celldm(4)=   0.000000  celldm(5)=   0.000000  celldm(6)=   0.000000

     crystal axes: (cart. coord. in units of alat)
               a(1) = (   1.000000   0.000000   0.000000 )  
               a(2) = (  -0.500000   0.866025   0.000000 )  
               a(3) = (   0.000000   0.000000   6.095331 )  

     reciprocal axes: (cart. coord. in units 2 pi/alat)
               b(1) = (  1.000000  0.577350 -0.000000 )  
               b(2) = (  0.000000  1.154701  0.000000 )  
               b(3) = (  0.000000 -0.000000  0.164060 )  


     PseudoPot. # 1 for Nb read from file:
     ../Nb.pz-spn-kjpaw_psl.1.0.0.UPF
     MD5 check sum: 38c2e04b3cc915696ca8dc9f46a23270
     Pseudo is Projector augmented-wave + core cor, Zval = 13.0
     Generated using "atomic" code by A. Dal Corso v.6.2.2
     Shape of augmentation charge: PSQ
     Using radial grid of 1227 points,  6 beta functions with: 
                l(1) =   0
                l(2) =   0
                l(3) =   1
                l(4) =   1
                l(5) =   2
                l(6) =   2
     Q(r) pseudized with 0 coefficients 


     PseudoPot. # 2 for S  read from file:
     ../S.pz-n-kjpaw_psl.0.1.UPF
     MD5 check sum: c0b1682311cf098e03f7841691d9a679
     Pseudo is Projector augmented-wave + core cor, Zval =  6.0
     Generated using "atomic" code by A. Dal Corso v.5.0.2 svn rev. 9415
     Shape of augmentation charge: PSQ
     Using radial grid of 1151 points,  4 beta functions with: 
                l(1) =   0
                l(2) =   0
                l(3) =   1
                l(4) =   1
     Q(r) pseudized with 0 coefficients 


     atomic species   valence    mass     pseudopotential
        Nb            13.00    92.90600     Nb( 1.00)
        S              6.00    32.06500     S ( 1.00)

      6 Sym. Ops. (no inversion) found


                                    s                        frac. trans.

      isym =  1     identity                                     

 cryst.   s( 1) = (     1          0          0      )
                  (     0          1          0      )
                  (     0          0          1      )

 cart.    s( 1) = (  1.0000000  0.0000000  0.0000000 )
                  (  0.0000000  1.0000000  0.0000000 )
                  (  0.0000000  0.0000000  1.0000000 )


      isym =  2     120 deg rotation - cryst. axis [0,0,1]       

 cryst.   s( 2) = (     0          1          0      )
                  (    -1         -1          0      )
                  (     0          0          1      )

 cart.    s( 2) = ( -0.5000000 -0.8660254  0.0000000 )
                  (  0.8660254 -0.5000000  0.0000000 )
                  (  0.0000000  0.0000000  1.0000000 )


      isym =  3     120 deg rotation - cryst. axis [0,0,-1]      

 cryst.   s( 3) = (    -1         -1          0      )
                  (     1          0          0      )
                  (     0          0          1      )

 cart.    s( 3) = ( -0.5000000  0.8660254  0.0000000 )
                  ( -0.8660254 -0.5000000  0.0000000 )
                  (  0.0000000  0.0000000  1.0000000 )


      isym =  4     inv. 180 deg rotation - cart. axis [1,0,0]   

 cryst.   s( 4) = (    -1          0          0      )
                  (     1          1          0      )
                  (     0          0          1      )

 cart.    s( 4) = ( -1.0000000  0.0000000  0.0000000 )
                  (  0.0000000  1.0000000  0.0000000 )
                  (  0.0000000  0.0000000  1.0000000 )


      isym =  5     inv. 180 deg rotation - cryst. axis [0,1,0]  

 cryst.   s( 5) = (     1          1          0      )
                  (     0         -1          0      )
                  (     0          0          1      )

 cart.    s( 5) = (  0.5000000  0.8660254  0.0000000 )
                  (  0.8660254 -0.5000000  0.0000000 )
                  (  0.0000000  0.0000000  1.0000000 )


      isym =  6     inv. 180 deg rotation - cryst. axis [1,1,0]  

 cryst.   s( 6) = (     0         -1          0      )
                  (    -1          0          0      )
                  (     0          0          1      )

 cart.    s( 6) = (  0.5000000 -0.8660254  0.0000000 )
                  ( -0.8660254 -0.5000000  0.0000000 )
                  (  0.0000000  0.0000000  1.0000000 )


     point group C_3v (3m)  
     there are  3 classes
     the character table:

       E     2C3   3s_v 
A_1    1.00  1.00  1.00
A_2    1.00  1.00 -1.00
E      2.00 -1.00  0.00

     the symmetry operations in each class and the name of the first element:

     E        1
          identity                                               
     2C3      2    3
          120 deg rotation - cryst. axis [0,0,1]                 
     3s_v     4    5    6
          inv. 180 deg rotation - cart. axis [1,0,0]             

   Cartesian axes

     site n.     atom                  positions (alat units)
         1           S   tau(   1) = (   0.0000000   0.5773503   1.4932768  )
         2           Nb  tau(   2) = (   0.0000000   0.0000000   1.0094618  )
         3           S   tau(   3) = (   0.0000000   0.5773503   0.5321904  )
         4           S   tau(   4) = (   0.5000000   0.2886751   2.5511139  )
         5           Nb  tau(   5) = (   0.0000000   0.0000000   3.0283905  )
         6           S   tau(   6) = (   0.5000000   0.2886751   3.5056620  )

   Crystallographic axes

     site n.     atom                  positions (cryst. coord.)
         1           S   tau(   1) = (  0.3333333  0.6666667  0.2449870  )
         2           Nb  tau(   2) = (  0.0000000  0.0000000  0.1656123  )
         3           S   tau(   3) = (  0.3333333  0.6666667  0.0873112  )
         4           S   tau(   4) = (  0.6666667  0.3333333  0.4185358  )
         5           Nb  tau(   5) = (  0.0000000  0.0000000  0.4968378  )
         6           S   tau(   6) = (  0.6666667  0.3333333  0.5751389  )

     number of k points=    40  Methfessel-Paxton smearing, width (Ry)=  0.0200
                       cart. coord. in units 2pi/alat
        k(    1) = (   0.0000000   0.0000000   0.0000000), wk =   0.0055402
        k(    2) = (   0.0000000   0.0607737   0.0000000), wk =   0.0332410
        k(    3) = (   0.0000000   0.1215474   0.0000000), wk =   0.0332410
        k(    4) = (   0.0000000   0.1823211   0.0000000), wk =   0.0332410
        k(    5) = (   0.0000000   0.2430949   0.0000000), wk =   0.0332410
        k(    6) = (   0.0000000   0.3038686   0.0000000), wk =   0.0332410
        k(    7) = (   0.0000000   0.3646423   0.0000000), wk =   0.0332410
        k(    8) = (   0.0000000   0.4254160   0.0000000), wk =   0.0332410
        k(    9) = (   0.0000000   0.4861897   0.0000000), wk =   0.0332410
        k(   10) = (   0.0000000   0.5469634   0.0000000), wk =   0.0332410
        k(   11) = (   0.0526316   0.0911606   0.0000000), wk =   0.0332410
        k(   12) = (   0.0526316   0.1519343   0.0000000), wk =   0.0664820
        k(   13) = (   0.0526316   0.2127080   0.0000000), wk =   0.0664820
        k(   14) = (   0.0526316   0.2734817   0.0000000), wk =   0.0664820
        k(   15) = (   0.0526316   0.3342554   0.0000000), wk =   0.0664820
        k(   16) = (   0.0526316   0.3950291   0.0000000), wk =   0.0664820
        k(   17) = (   0.0526316   0.4558028   0.0000000), wk =   0.0664820
        k(   18) = (   0.0526316   0.5165766   0.0000000), wk =   0.0664820
        k(   19) = (   0.0526316   0.5773503   0.0000000), wk =   0.0332410
        k(   20) = (   0.1052632   0.1823211   0.0000000), wk =   0.0332410
        k(   21) = (   0.1052632   0.2430949   0.0000000), wk =   0.0664820
        k(   22) = (   0.1052632   0.3038686   0.0000000), wk =   0.0664820
        k(   23) = (   0.1052632   0.3646423   0.0000000), wk =   0.0664820
        k(   24) = (   0.1052632   0.4254160   0.0000000), wk =   0.0664820
        k(   25) = (   0.1052632   0.4861897   0.0000000), wk =   0.0664820
        k(   26) = (   0.1052632   0.5469634   0.0000000), wk =   0.0664820
        k(   27) = (   0.1578947   0.2734817   0.0000000), wk =   0.0332410
        k(   28) = (   0.1578947   0.3342554   0.0000000), wk =   0.0664820
        k(   29) = (   0.1578947   0.3950291   0.0000000), wk =   0.0664820
        k(   30) = (   0.1578947   0.4558028   0.0000000), wk =   0.0664820
        k(   31) = (   0.1578947   0.5165766   0.0000000), wk =   0.0664820
        k(   32) = (   0.1578947   0.5773503   0.0000000), wk =   0.0332410
        k(   33) = (   0.2105263   0.3646423   0.0000000), wk =   0.0332410
        k(   34) = (   0.2105263   0.4254160   0.0000000), wk =   0.0664820
        k(   35) = (   0.2105263   0.4861897   0.0000000), wk =   0.0664820
        k(   36) = (   0.2105263   0.5469634   0.0000000), wk =   0.0664820
        k(   37) = (   0.2631579   0.4558028   0.0000000), wk =   0.0332410
        k(   38) = (   0.2631579   0.5165766   0.0000000), wk =   0.0664820
        k(   39) = (   0.2631579   0.5773503   0.0000000), wk =   0.0332410
        k(   40) = (   0.3157895   0.5469634   0.0000000), wk =   0.0332410

                       cryst. coord.
        k(    1) = (   0.0000000   0.0000000   0.0000000), wk =   0.0055402
        k(    2) = (   0.0000000   0.0526316   0.0000000), wk =   0.0332410
        k(    3) = (   0.0000000   0.1052632   0.0000000), wk =   0.0332410
        k(    4) = (   0.0000000   0.1578947   0.0000000), wk =   0.0332410
        k(    5) = (   0.0000000   0.2105263   0.0000000), wk =   0.0332410
        k(    6) = (   0.0000000   0.2631579   0.0000000), wk =   0.0332410
        k(    7) = (   0.0000000   0.3157895   0.0000000), wk =   0.0332410
        k(    8) = (   0.0000000   0.3684211   0.0000000), wk =   0.0332410
        k(    9) = (   0.0000000   0.4210526   0.0000000), wk =   0.0332410
        k(   10) = (   0.0000000   0.4736842   0.0000000), wk =   0.0332410
        k(   11) = (   0.0526316   0.0526316   0.0000000), wk =   0.0332410
        k(   12) = (   0.0526316   0.1052632   0.0000000), wk =   0.0664820
        k(   13) = (   0.0526316   0.1578947   0.0000000), wk =   0.0664820
        k(   14) = (   0.0526316   0.2105263   0.0000000), wk =   0.0664820
        k(   15) = (   0.0526316   0.2631579   0.0000000), wk =   0.0664820
        k(   16) = (   0.0526316   0.3157895   0.0000000), wk =   0.0664820
        k(   17) = (   0.0526316   0.3684211   0.0000000), wk =   0.0664820
        k(   18) = (   0.0526316   0.4210526   0.0000000), wk =   0.0664820
        k(   19) = (   0.0526316   0.4736842   0.0000000), wk =   0.0332410
        k(   20) = (   0.1052632   0.1052632   0.0000000), wk =   0.0332410
        k(   21) = (   0.1052632   0.1578947   0.0000000), wk =   0.0664820
        k(   22) = (   0.1052632   0.2105263   0.0000000), wk =   0.0664820
        k(   23) = (   0.1052632   0.2631579   0.0000000), wk =   0.0664820
        k(   24) = (   0.1052632   0.3157895   0.0000000), wk =   0.0664820
        k(   25) = (   0.1052632   0.3684211   0.0000000), wk =   0.0664820
        k(   26) = (   0.1052632   0.4210526   0.0000000), wk =   0.0664820
        k(   27) = (   0.1578947   0.1578947   0.0000000), wk =   0.0332410
        k(   28) = (   0.1578947   0.2105263   0.0000000), wk =   0.0664820
        k(   29) = (   0.1578947   0.2631579   0.0000000), wk =   0.0664820
        k(   30) = (   0.1578947   0.3157895   0.0000000), wk =   0.0664820
        k(   31) = (   0.1578947   0.3684211   0.0000000), wk =   0.0664820
        k(   32) = (   0.1578947   0.4210526   0.0000000), wk =   0.0332410
        k(   33) = (   0.2105263   0.2105263   0.0000000), wk =   0.0332410
        k(   34) = (   0.2105263   0.2631579   0.0000000), wk =   0.0664820
        k(   35) = (   0.2105263   0.3157895   0.0000000), wk =   0.0664820
        k(   36) = (   0.2105263   0.3684211   0.0000000), wk =   0.0664820
        k(   37) = (   0.2631579   0.2631579   0.0000000), wk =   0.0332410
        k(   38) = (   0.2631579   0.3157895   0.0000000), wk =   0.0664820
        k(   39) = (   0.2631579   0.3684211   0.0000000), wk =   0.0332410
        k(   40) = (   0.3157895   0.3157895   0.0000000), wk =   0.0332410

     Dense  grid:   170041 G-vectors     FFT dimensions: (  40,  40, 243)

     Smooth grid:    43005 G-vectors     FFT dimensions: (  25,  25, 160)

     Dynamical RAM for                 wfc:       2.46 MB

     Dynamical RAM for     wfc (w. buffer):     100.90 MB

     Dynamical RAM for           str. fact:       2.59 MB

     Dynamical RAM for           local pot:       0.00 MB

     Dynamical RAM for          nlocal pot:       2.79 MB

     Dynamical RAM for                qrad:       3.21 MB

     Dynamical RAM for          rho,v,vnew:       8.36 MB

     Dynamical RAM for               rhoin:       2.79 MB

     Dynamical RAM for            rho*nmix:      20.76 MB

     Dynamical RAM for           G-vectors:       5.03 MB

     Dynamical RAM for          h,s,v(r/c):       0.66 MB

     Dynamical RAM for          <psi|beta>:       0.06 MB

     Dynamical RAM for                 psi:       4.92 MB

     Dynamical RAM for                hpsi:       4.92 MB

     Dynamical RAM for                spsi:       4.92 MB

     Dynamical RAM for      wfcinit/wfcrot:       5.00 MB

     Dynamical RAM for           addusdens:     246.48 MB

     Estimated static dynamical RAM per process >     157.76 MB

     Estimated max dynamical RAM per process >     404.25 MB

     Estimated total dynamical RAM >     808.49 MB

     Initial potential from superposition of free atoms

     starting charge   49.99775, renormalised to   50.00000

     negative rho (up, down):  7.872E-05 0.000E+00
     Starting wfcs are   42 randomized atomic wfcs +   18 random wfcs
     Checking if some PAW data can be deallocated... 

     total cpu time spent up to now is       12.4 secs

     Self-consistent Calculation

     iteration #  1     ecut=    40.00 Ry     beta= 0.70
     Davidson diagonalization with overlap
     ethr =  1.00E-02,  avg # of iterations =  7.8

     Threshold (ethr) on eigenvalues was too large:
     Diagonalizing with lowered threshold

     Davidson diagonalization with overlap
     ethr =  5.35E-04,  avg # of iterations =  2.6

     negative rho (up, down):  1.253E-04 0.000E+00

     total cpu time spent up to now is      110.5 secs

     total energy              =    -907.81146311 Ry
     estimated scf accuracy    <       0.26868922 Ry

     iteration #  2     ecut=    40.00 Ry     beta= 0.70
     Davidson diagonalization with overlap
     ethr =  5.37E-04,  avg # of iterations =  6.0

     negative rho (up, down):  1.426E-04 0.000E+00

     total cpu time spent up to now is      153.7 secs

     total energy              =    -907.49715179 Ry
     estimated scf accuracy    <       2.98604037 Ry

     iteration #  3     ecut=    40.00 Ry     beta= 0.70
     Davidson diagonalization with overlap
     ethr =  5.37E-04,  avg # of iterations =  7.5

     negative rho (up, down):  1.217E-04 0.000E+00

     total cpu time spent up to now is      197.3 secs

     total energy              =    -906.81611773 Ry
     estimated scf accuracy    <      40.52391078 Ry

     iteration #  4     ecut=    40.00 Ry     beta= 0.70
     Davidson diagonalization with overlap
     ethr =  5.37E-04,  avg # of iterations =  7.0

     negative rho (up, down):  1.218E-04 0.000E+00

     total cpu time spent up to now is      239.6 secs

     total energy              =    -907.89522936 Ry
     estimated scf accuracy    <       0.13763563 Ry

     iteration #  5     ecut=    40.00 Ry     beta= 0.70
     Davidson diagonalization with overlap
     ethr =  2.75E-04,  avg # of iterations =  2.1

     negative rho (up, down):  1.241E-04 0.000E+00

     total cpu time spent up to now is      272.5 secs

     total energy              =    -907.90744553 Ry
     estimated scf accuracy    <       0.10761190 Ry

     iteration #  6     ecut=    40.00 Ry     beta= 0.70
     Davidson diagonalization with overlap
     ethr =  2.15E-04,  avg # of iterations =  1.4

     negative rho (up, down):  1.257E-04 0.000E+00

     total cpu time spent up to now is      301.8 secs

     total energy              =    -907.90762726 Ry
     estimated scf accuracy    <       0.05979635 Ry

     iteration #  7     ecut=    40.00 Ry     beta= 0.70
     Davidson diagonalization with overlap
     ethr =  1.20E-04,  avg # of iterations =  1.6

     negative rho (up, down):  1.277E-04 0.000E+00

     total cpu time spent up to now is      331.7 secs

     total energy              =    -907.91059732 Ry
     estimated scf accuracy    <       0.01330542 Ry

     iteration #  8     ecut=    40.00 Ry     beta= 0.70
     Davidson diagonalization with overlap
     ethr =  2.66E-05,  avg # of iterations =  4.5

     negative rho (up, down):  1.293E-04 0.000E+00

     total cpu time spent up to now is      365.2 secs

     total energy              =    -907.91124701 Ry
     estimated scf accuracy    <       0.00151393 Ry

     iteration #  9     ecut=    40.00 Ry     beta= 0.70
     Davidson diagonalization with overlap
     ethr =  3.03E-06,  avg # of iterations =  8.3

     negative rho (up, down):  1.316E-04 0.000E+00

     total cpu time spent up to now is      402.8 secs

     total energy              =    -907.91126478 Ry
     estimated scf accuracy    <       0.00389359 Ry

     iteration # 10     ecut=    40.00 Ry     beta= 0.70
     Davidson diagonalization with overlap
     ethr =  3.03E-06,  avg # of iterations =  1.0

     negative rho (up, down):  1.317E-04 0.000E+00

     total cpu time spent up to now is      430.7 secs

     total energy              =    -907.91145929 Ry
     estimated scf accuracy    <       0.00179932 Ry

     iteration # 11     ecut=    40.00 Ry     beta= 0.70
     Davidson diagonalization with overlap
     ethr =  3.03E-06,  avg # of iterations =  1.0

     negative rho (up, down):  1.320E-04 0.000E+00

     total cpu time spent up to now is      458.4 secs

     total energy              =    -907.91149360 Ry
     estimated scf accuracy    <       0.00008589 Ry

     iteration # 12     ecut=    40.00 Ry     beta= 0.70
     Davidson diagonalization with overlap
     ethr =  1.72E-07,  avg # of iterations =  1.0

     negative rho (up, down):  1.321E-04 0.000E+00

     total cpu time spent up to now is      486.2 secs

     total energy              =    -907.91149492 Ry
     estimated scf accuracy    <       0.00000078 Ry

     iteration # 13     ecut=    40.00 Ry     beta= 0.70
     Davidson diagonalization with overlap
     ethr =  1.55E-09,  avg # of iterations =  1.0

     negative rho (up, down):  1.321E-04 0.000E+00

     total cpu time spent up to now is      514.1 secs

     total energy              =    -907.91149494 Ry
     estimated scf accuracy    <       0.00000002 Ry

     iteration # 14     ecut=    40.00 Ry     beta= 0.70
     Davidson diagonalization with overlap
     ethr =  3.42E-11,  avg # of iterations =  2.6

     negative rho (up, down):  1.321E-04 0.000E+00

     total cpu time spent up to now is      548.8 secs

     End of self-consistent calculation

          k = 0.0000 0.0000 0.0000 (  5429 PWs)   bands (ev):

   -51.4504 -51.4367 -27.6631 -27.6560 -27.4326 -27.4326 -27.4232 -27.4232
   -10.3511 -10.2864  -9.0610  -8.9610  -2.1130  -1.8088   0.9723   0.9723
     1.0229   1.0229   1.3931   2.0768   2.0768   2.1167   2.1167   2.1291
     3.8434   4.2769   6.3256   6.3256   6.3686   6.3686   6.5028   6.5028
     6.5370   6.5370   8.5508   8.7284   9.0065   9.6094  11.3532  11.5626
    11.6238  11.9812  13.8544  13.8544  13.8796  13.8796  14.0207  15.7614
    15.7996  15.7996  16.0490  16.0490  16.1263  17.1020  18.0536  18.5255
    18.6688  18.6688  18.8018  19.1718

     occupation numbers 
     1.0000   1.0000   1.0000   1.0000   1.0000   1.0000   1.0000   1.0000
     1.0000   1.0000   1.0000   1.0000   1.0000   1.0000   1.0000   1.0000
     1.0000   1.0000   1.0000   1.0000   1.0000   1.0000   1.0000   1.0000
    -0.0024  -0.0000  -0.0000  -0.0000  -0.0000  -0.0000  -0.0000  -0.0000
    -0.0000  -0.0000  -0.0000  -0.0000  -0.0000  -0.0000  -0.0000  -0.0000
    -0.0000  -0.0000  -0.0000  -0.0000  -0.0000  -0.0000  -0.0000  -0.0000
    -0.0000  -0.0000  -0.0000  -0.0000  -0.0000  -0.0000  -0.0000  -0.0000
    -0.0000  -0.0000  -0.0000  -0.0000

          k = 0.0000 0.0608 0.0000 (  5405 PWs)   bands (ev):

   -51.4492 -51.4355 -27.6604 -27.6533 -27.4451 -27.4358 -27.4353 -27.4260
   -10.3127 -10.2482  -9.0484  -8.9497  -2.0670  -1.7630   0.8684   0.9176
     1.0113   1.0615   1.2650   1.7536   2.0096   2.0501   2.1604   2.3907
     3.8277   4.2252   6.2938   6.3224   6.3912   6.4078   6.4496   6.4557
     6.4832   6.5044   8.7030   8.9140   9.1148   9.6826  11.4209  11.6848
    11.8173  12.0802  13.6314  13.7673  13.9697  14.0040  14.1386  15.4150
    15.6624  15.7838  15.8567  16.0536  16.1387  17.1129  17.9885  18.4930
    18.7023  18.9089  19.0963  19.1103

     occupation numbers 
     1.0000   1.0000   1.0000   1.0000   1.0000   1.0000   1.0000   1.0000
     1.0000   1.0000   1.0000   1.0000   1.0000   1.0000   1.0000   1.0000
     1.0000   1.0000   1.0000   1.0000   1.0000   1.0000   1.0000   1.0001
    -0.0030  -0.0000  -0.0000  -0.0000  -0.0000  -0.0000  -0.0000  -0.0000
    -0.0000  -0.0000  -0.0000  -0.0000  -0.0000  -0.0000  -0.0000  -0.0000
    -0.0000  -0.0000  -0.0000  -0.0000  -0.0000  -0.0000  -0.0000  -0.0000
    -0.0000  -0.0000  -0.0000  -0.0000  -0.0000  -0.0000  -0.0000  -0.0000
    -0.0000  -0.0000  -0.0000  -0.0000

          k = 0.0000 0.1215 0.0000 (  5387 PWs)   bands (ev):

   -51.4457 -51.4320 -27.6528 -27.6456 -27.4813 -27.4723 -27.4434 -27.4340
   -10.2004 -10.1366  -9.0113  -8.9165  -1.9357  -1.6329   0.5922   0.6380
     0.9823   1.1245   1.1731   1.3546   1.8292   1.8712   2.2303   2.5445
     3.7623   4.0619   6.1307   6.2511   6.2623   6.3511   6.3567   6.4145
     6.6414   6.6731   8.9903   9.3703   9.5190   9.9297  11.5945  11.8705
    12.3227  12.4616  13.2579  13.4910  14.2741  14.3036  14.3575  14.7225
    15.0199  15.7645  15.8484  16.0507  16.0811  17.1449  17.5644  18.3149
    18.4865  18.6443  18.9566  19.0186

     occupation numbers 
     1.0000   1.0000   1.0000   1.0000   1.0000   1.0000   1.0000   1.0000
     1.0000   1.0000   1.0000   1.0000   1.0000   1.0000   1.0000   1.0000
     1.0000   1.0000   1.0000   1.0000   1.0000   1.0000   1.0000   1.0015
    -0.0071  -0.0000  -0.0000  -0.0000  -0.0000  -0.0000  -0.0000  -0.0000
    -0.0000  -0.0000  -0.0000  -0.0000  -0.0000  -0.0000  -0.0000  -0.0000
    -0.0000  -0.0000  -0.0000  -0.0000  -0.0000  -0.0000  -0.0000  -0.0000
    -0.0000  -0.0000  -0.0000  -0.0000  -0.0000  -0.0000  -0.0000  -0.0000
    -0.0000  -0.0000  -0.0000  -0.0000

          k = 0.0000 0.1823 0.0000 (  5361 PWs)   bands (ev):

   -51.4402 -51.4265 -27.6411 -27.6337 -27.5368 -27.5283 -27.4557 -27.4464
   -10.0221  -9.9597  -8.9523  -8.8640  -1.7435  -1.4458   0.2266   0.2672
     0.6416   0.9340   1.2997   1.3431   1.5817   1.6287   2.2057   2.5510
     3.6051   3.7876   5.9024   6.1782   6.2430   6.2664   6.3008   6.4135
     6.9343   6.9761   9.2793   9.8088  10.1601  10.4834  11.8404  11.9874
    12.8394  12.9053  12.9850  13.1404  14.0944  14.3215  14.7032  14.8140
    14.8939  15.5851  15.7974  15.8600  16.1683  16.9894  17.1270  17.9241
    17.9333  18.3640  18.5078  18.9758

     occupation numbers 
     1.0000   1.0000   1.0000   1.0000   1.0000   1.0000   1.0000   1.0000
     1.0000   1.0000   1.0000   1.0000   1.0000   1.0000   1.0000   1.0000
     1.0000   1.0000   1.0000   1.0000   1.0000   1.0000   1.0000   1.0017
    -0.0295  -0.0052  -0.0000  -0.0000  -0.0000  -0.0000  -0.0000  -0.0000
    -0.0000  -0.0000  -0.0000  -0.0000  -0.0000  -0.0000  -0.0000  -0.0000
    -0.0000  -0.0000  -0.0000  -0.0000  -0.0000  -0.0000  -0.0000  -0.0000
    -0.0000  -0.0000  -0.0000  -0.0000  -0.0000  -0.0000  -0.0000  -0.0000
    -0.0000  -0.0000  -0.0000  -0.0000

          k = 0.0000 0.2431 0.0000 (  5375 PWs)   bands (ev):

   -51.4334 -51.4197 -27.6264 -27.6188 -27.6052 -27.5973 -27.4710 -27.4619
    -9.7912  -9.7312  -8.8761  -8.7963  -1.5461  -1.2691  -0.1270  -0.0948
     0.2780   0.5077   1.3114   1.3443   1.5174   1.5740   2.0853   2.4417
     3.3433   3.4508   5.8082   6.1424   6.1765   6.1992   6.4099   6.6183
     7.2466   7.3006   9.6089  10.1368  10.7008  11.2163  11.9880  12.2371
    12.5885  12.7619  12.7842  13.1653  14.1724  14.4635  14.9058  15.2010
    15.4029  15.5233  15.6347  15.9271  16.3522  16.6113  16.8709  17.3531
    17.5368  17.9505  18.1472  18.9611

     occupation numbers 
     1.0000   1.0000   1.0000   1.0000   1.0000   1.0000   1.0000   1.0000
     1.0000   1.0000   1.0000   1.0000   1.0000   1.0000   1.0000   1.0000
     1.0000   1.0000   1.0000   1.0000   1.0000   1.0000   1.0000   1.0002
     0.1323  -0.0098  -0.0000  -0.0000  -0.0000  -0.0000  -0.0000  -0.0000
    -0.0000  -0.0000  -0.0000  -0.0000  -0.0000  -0.0000  -0.0000  -0.0000
    -0.0000  -0.0000  -0.0000  -0.0000  -0.0000  -0.0000  -0.0000  -0.0000
    -0.0000  -0.0000  -0.0000  -0.0000  -0.0000  -0.0000  -0.0000  -0.0000
    -0.0000  -0.0000  -0.0000  -0.0000

          k = 0.0000 0.3039 0.0000 (  5357 PWs)   bands (ev):

   -51.4260 -51.4122 -27.6787 -27.6713 -27.6103 -27.6026 -27.4876 -27.4786
    -9.5264  -9.4700  -8.7891  -8.7193  -1.4549  -1.2440  -0.3612  -0.3089
    -0.0823   0.0960   1.0529   1.0923   1.7485   1.7976   1.9227   2.2825
     3.0537   3.1390   5.8715   6.0916   6.1432   6.2599   6.6496   6.8953
     7.5292   7.5989   9.9766  10.4282  10.8937  11.5877  11.7675  12.2143
    12.3036  12.5801  13.0651  13.1682  14.2760  14.8905  14.9383  15.2764
    15.5506  15.7037  15.9066  16.2390  16.5549  16.6674  16.6684  17.1494
    17.3762  17.6181  17.9466  19.0340

     occupation numbers 
     1.0000   1.0000   1.0000   1.0000   1.0000   1.0000   1.0000   1.0000
     1.0000   1.0000   1.0000   1.0000   1.0000   1.0000   1.0000   1.0000
     1.0000   1.0000   1.0000   1.0000   1.0000   1.0000   1.0000   1.0000
     0.9054   0.7082  -0.0000  -0.0000  -0.0000  -0.0000  -0.0000  -0.0000
    -0.0000  -0.0000  -0.0000  -0.0000  -0.0000  -0.0000  -0.0000  -0.0000
    -0.0000  -0.0000  -0.0000  -0.0000  -0.0000  -0.0000  -0.0000  -0.0000
    -0.0000  -0.0000  -0.0000  -0.0000  -0.0000  -0.0000  -0.0000  -0.0000
    -0.0000  -0.0000  -0.0000  -0.0000

          k = 0.0000 0.3646 0.0000 (  5383 PWs)   bands (ev):

   -51.4188 -51.4050 -27.7493 -27.7425 -27.5947 -27.5867 -27.5037 -27.4948
    -9.2521  -9.2009  -8.6997  -8.6410  -1.5609  -1.4347  -0.5076  -0.3781
    -0.3292  -0.2368   0.8271   0.8681   1.7703   1.9629   2.0102   2.1282
     2.8611   2.9458   6.0488   6.1104   6.1526   6.3995   6.9131   7.1703
     7.7550   7.8421  10.3215  10.6693  10.9015  11.1692  11.4297  11.9368
    11.9858  12.7667  13.1151  13.7720  14.1843  14.8563  15.1132  15.2373
    15.3075  15.6545  15.9418  16.6608  16.6956  16.9477  17.1652  17.5537
    17.7198  17.9529  17.9986  18.1201

     occupation numbers 
     1.0000   1.0000   1.0000   1.0000   1.0000   1.0000   1.0000   1.0000
     1.0000   1.0000   1.0000   1.0000   1.0000   1.0000   1.0000   1.0000
     1.0000   1.0000   1.0000   1.0000   1.0000   1.0000   1.0000   1.0000
     1.0351   1.0211  -0.0000  -0.0000  -0.0000  -0.0000  -0.0000  -0.0000
    -0.0000  -0.0000  -0.0000  -0.0000  -0.0000  -0.0000  -0.0000  -0.0000
    -0.0000  -0.0000  -0.0000  -0.0000  -0.0000  -0.0000  -0.0000  -0.0000
    -0.0000  -0.0000  -0.0000  -0.0000  -0.0000  -0.0000  -0.0000  -0.0000
    -0.0000  -0.0000  -0.0000  -0.0000

          k = 0.0000 0.4254 0.0000 (  5385 PWs)   bands (ev):

   -51.4126 -51.3987 -27.8096 -27.8033 -27.5811 -27.5730 -27.5176 -27.5087
    -8.9982  -8.9538  -8.6179  -8.5703  -1.7680  -1.6899  -0.7710  -0.6317
    -0.3587  -0.2958   0.6482   0.6900   1.6553   2.0082   2.1341   2.1819
     2.8298   2.9288   6.1935   6.2237   6.2898   6.5661   7.1269   7.3866
     7.9158   8.0192  10.4031  10.4502  10.8455  11.0296  11.1104  11.7277
    11.9442  12.8502  13.1916  13.8598  13.9677  14.5726  14.7332  15.0757
    15.1146  15.6278  16.5738  16.6885  17.1277  17.1609  17.3169  17.7521
    18.1974  18.4183  18.5253  18.6457

     occupation numbers 
     1.0000   1.0000   1.0000   1.0000   1.0000   1.0000   1.0000   1.0000
     1.0000   1.0000   1.0000   1.0000   1.0000   1.0000   1.0000   1.0000
     1.0000   1.0000   1.0000   1.0000   1.0000   1.0000   1.0000   1.0000
     1.0321   1.0277  -0.0000  -0.0000  -0.0000  -0.0000  -0.0000  -0.0000
    -0.0000  -0.0000  -0.0000  -0.0000  -0.0000  -0.0000  -0.0000  -0.0000
    -0.0000  -0.0000  -0.0000  -0.0000  -0.0000  -0.0000  -0.0000  -0.0000
    -0.0000  -0.0000  -0.0000  -0.0000  -0.0000  -0.0000  -0.0000  -0.0000
    -0.0000  -0.0000  -0.0000  -0.0000

          k = 0.0000 0.4862 0.0000 (  5372 PWs)   bands (ev):

   -51.4080 -51.3941 -27.8534 -27.8474 -27.5711 -27.5629 -27.5277 -27.5189
    -8.7991  -8.7626  -8.5544  -8.5166  -1.9532  -1.9000  -0.9855  -0.8562
    -0.3831  -0.3429   0.5248   0.5671   1.5838   1.9308   2.2484   2.2981
     2.9222   3.0344   6.3036   6.3222   6.5488   6.7276   7.2455   7.5227
     8.0154   8.1315   9.7624  10.1422  10.9687  11.0164  11.2303  11.6667
    12.0996  12.8515  13.3682  13.5113  13.7283  14.2519  14.2539  14.6342
    15.2729  15.4376  16.2450  17.0353  17.2778  17.5701  17.7940  18.1967
    18.3401  18.7542  19.2407  19.3998

     occupation numbers 
     1.0000   1.0000   1.0000   1.0000   1.0000   1.0000   1.0000   1.0000
     1.0000   1.0000   1.0000   1.0000   1.0000   1.0000   1.0000   1.0000
     1.0000   1.0000   1.0000   1.0000   1.0000   1.0000   1.0000   1.0000
     1.0297   0.9370  -0.0000  -0.0000  -0.0000  -0.0000  -0.0000  -0.0000
    -0.0000  -0.0000  -0.0000  -0.0000  -0.0000  -0.0000  -0.0000  -0.0000
    -0.0000  -0.0000  -0.0000  -0.0000  -0.0000  -0.0000  -0.0000  -0.0000
    -0.0000  -0.0000  -0.0000  -0.0000  -0.0000  -0.0000  -0.0000  -0.0000
    -0.0000  -0.0000  -0.0000  -0.0000

          k = 0.0000 0.5470 0.0000 (  5366 PWs)   bands (ev):

   -51.4056 -51.3916 -27.8764 -27.8706 -27.5658 -27.5576 -27.5330 -27.5243
    -8.6885  -8.6580  -8.5193  -8.4874  -2.0578  -2.0167  -1.1003  -0.9756
    -0.4131  -0.3851   0.4619   0.5045   1.5507   1.8936   2.3041   2.3555
     3.0217   3.1339   6.3818   6.3936   6.7584   6.8240   7.2799   7.5833
     8.0623   8.1853   9.3401   9.8515  11.0245  11.0787  11.4117  11.6231
    12.3731  12.6847  13.2171  13.4470  13.7464  13.9796  14.1612  14.3591
    14.9970  15.1501  16.3475  16.8897  17.5899  17.7754  17.8517  18.5790
    18.7606  19.0276  19.6702  19.9310

     occupation numbers 
     1.0000   1.0000   1.0000   1.0000   1.0000   1.0000   1.0000   1.0000
     1.0000   1.0000   1.0000   1.0000   1.0000   1.0000   1.0000   1.0000
     1.0000   1.0000   1.0000   1.0000   1.0000   1.0000   1.0000   1.0000
     0.9549   0.7223  -0.0000  -0.0000  -0.0000  -0.0000  -0.0000  -0.0000
    -0.0000  -0.0000  -0.0000  -0.0000  -0.0000  -0.0000  -0.0000  -0.0000
    -0.0000  -0.0000  -0.0000  -0.0000  -0.0000  -0.0000  -0.0000  -0.0000
    -0.0000  -0.0000  -0.0000  -0.0000  -0.0000  -0.0000  -0.0000  -0.0000
    -0.0000  -0.0000  -0.0000  -0.0000

          k = 0.0526 0.0912 0.0000 (  5391 PWs)   bands (ev):

   -51.4468 -51.4331 -27.6553 -27.6481 -27.4693 -27.4602 -27.4410 -27.4316
   -10.2374 -10.1733  -9.0235  -8.9274  -1.9781  -1.6748   0.6798   0.7266
     1.0698   1.0869   1.1353   1.4740   1.8645   1.9040   2.2395   2.5309
     3.7874   4.1174   6.2019   6.2568   6.2760   6.3457   6.3921   6.4442
     6.5847   6.6153   8.9150   9.2370   9.3785   9.8404  11.5413  11.8295
    12.1660  12.3331  13.3626  13.5946  14.1320  14.1972  14.3255  14.9227
    15.1955  15.7085  15.9020  16.0176  16.1102  17.1481  17.7991  18.4145
    18.4966  18.8395  18.8830  19.0424

     occupation numbers 
     1.0000   1.0000   1.0000   1.0000   1.0000   1.0000   1.0000   1.0000
     1.0000   1.0000   1.0000   1.0000   1.0000   1.0000   1.0000   1.0000
     1.0000   1.0000   1.0000   1.0000   1.0000   1.0000   1.0000   1.0012
    -0.0052  -0.0000  -0.0000  -0.0000  -0.0000  -0.0000  -0.0000  -0.0000
    -0.0000  -0.0000  -0.0000  -0.0000  -0.0000  -0.0000  -0.0000  -0.0000
    -0.0000  -0.0000  -0.0000  -0.0000  -0.0000  -0.0000  -0.0000  -0.0000
    -0.0000  -0.0000  -0.0000  -0.0000  -0.0000  -0.0000  -0.0000  -0.0000
    -0.0000  -0.0000  -0.0000  -0.0000

          k = 0.0526 0.1519 0.0000 (  5365 PWs)   bands (ev):

   -51.4424 -51.4286 -27.6456 -27.6383 -27.5144 -27.5057 -27.4519 -27.4426
   -10.0920 -10.0290  -8.9754  -8.8845  -1.8148  -1.5142   0.3634   0.4061
     0.7848   1.1123   1.2261   1.2718   1.6043   1.6469   2.2918   2.6097
     3.6765   3.8967   5.9762   6.1776   6.2165   6.2675   6.3062   6.3811
     6.8549   6.8979   9.1774   9.6803   9.9365  10.2484  11.7505  11.9578
    12.7163  12.8101  13.0281  13.3114  14.2088  14.3618  14.5690  14.6142
    14.7786  15.5820  15.7976  15.9427  16.0796  17.1946  17.4403  17.9387
    18.2083  18.4478  18.5653  19.2040

     occupation numbers 
     1.0000   1.0000   1.0000   1.0000   1.0000   1.0000   1.0000   1.0000
     1.0000   1.0000   1.0000   1.0000   1.0000   1.0000   1.0000   1.0000
     1.0000   1.0000   1.0000   1.0000   1.0000   1.0000   1.0000   1.0040
    -0.0177  -0.0010  -0.0000  -0.0000  -0.0000  -0.0000  -0.0000  -0.0000
    -0.0000  -0.0000  -0.0000  -0.0000  -0.0000  -0.0000  -0.0000  -0.0000
    -0.0000  -0.0000  -0.0000  -0.0000  -0.0000  -0.0000  -0.0000  -0.0000
    -0.0000  -0.0000  -0.0000  -0.0000  -0.0000  -0.0000  -0.0000  -0.0000
    -0.0000  -0.0000  -0.0000  -0.0000

          k = 0.0526 0.2127 0.0000 (  5366 PWs)   bands (ev):

   -51.4362 -51.4225 -27.6324 -27.6249 -27.5753 -27.5671 -27.4667 -27.4575
    -9.8872  -9.8261  -8.9077  -8.8242  -1.6139  -1.3240   0.0086   0.0443
     0.4564   0.7140   1.3035   1.3393   1.4121   1.4735   2.2466   2.5679
     3.4656   3.5880   5.8098   6.0892   6.1896   6.2606   6.2930   6.4606
     7.1753   7.2272   9.4805  10.0305  10.5743  10.9528  11.9950  12.0915
    12.6792  12.9447  13.0000  13.1867  14.1067  14.2029  14.6789  14.9933
    15.1219  15.5408  15.5738  15.9102  16.1201  16.9555  17.1560  17.3577
    17.8005  18.0190  18.3728  19.1735

     occupation numbers 
     1.0000   1.0000   1.0000   1.0000   1.0000   1.0000   1.0000   1.0000
     1.0000   1.0000   1.0000   1.0000   1.0000   1.0000   1.0000   1.0000
     1.0000   1.0000   1.0000   1.0000   1.0000   1.0000   1.0000   1.0022
    -0.0184  -0.0320  -0.0000  -0.0000  -0.0000  -0.0000  -0.0000  -0.0000
    -0.0000  -0.0000  -0.0000  -0.0000  -0.0000  -0.0000  -0.0000  -0.0000
    -0.0000  -0.0000  -0.0000  -0.0000  -0.0000  -0.0000  -0.0000  -0.0000
    -0.0000  -0.0000  -0.0000  -0.0000  -0.0000  -0.0000  -0.0000  -0.0000
    -0.0000  -0.0000  -0.0000  -0.0000

          k = 0.0526 0.2735 0.0000 (  5369 PWs)   bands (ev):

   -51.4291 -51.4153 -27.6451 -27.6375 -27.6170 -27.6094 -27.4838 -27.4748
    -9.6390  -9.5808  -8.8256  -8.7515  -1.4567  -1.2076  -0.2763  -0.2443
     0.1010   0.2968   1.0278   1.0849   1.6136   1.6621   2.1153   2.4346
     3.1873   3.2657   5.7742   6.0389   6.1592   6.2921   6.4727   6.6837
     7.4832   7.5416   9.8345  10.3386  10.9469  11.5900  11.9495  12.4116
    12.4487  12.6104  12.8232  13.1485  14.2849  14.6275  14.9313  15.0140
    15.2338  15.6597  15.7828  16.0540  16.2118  16.5433  16.8724  17.2262
    17.5591  17.7104  18.2372  19.2002

     occupation numbers 
     1.0000   1.0000   1.0000   1.0000   1.0000   1.0000   1.0000   1.0000
     1.0000   1.0000   1.0000   1.0000   1.0000   1.0000   1.0000   1.0000
     1.0000   1.0000   1.0000   1.0000   1.0000   1.0000   1.0000   1.0002
     0.5655   0.3262  -0.0000  -0.0000  -0.0000  -0.0000  -0.0000  -0.0000
    -0.0000  -0.0000  -0.0000  -0.0000  -0.0000  -0.0000  -0.0000  -0.0000
    -0.0000  -0.0000  -0.0000  -0.0000  -0.0000  -0.0000  -0.0000  -0.0000
    -0.0000  -0.0000  -0.0000  -0.0000  -0.0000  -0.0000  -0.0000  -0.0000
    -0.0000  -0.0000  -0.0000  -0.0000

          k = 0.0526 0.3343 0.0000 (  5374 PWs)   bands (ev):

   -51.4218 -51.4080 -27.7159 -27.7089 -27.6012 -27.5933 -27.5014 -27.4924
    -9.3686  -9.3148  -8.7367  -8.6731  -1.4668  -1.3042  -0.4209  -0.3338
    -0.2384  -0.1012   0.8063   0.8689   1.7947   1.8408   1.9481   2.2665
     2.9562   3.0268   5.8537   6.0511   6.2096   6.3839   6.7302   6.9614
     7.7365   7.7962  10.2134  10.6178  11.0076  11.4711  11.6977  12.0948
    12.1844  12.7262  13.1096  13.4779  14.2646  14.8197  15.0015  15.1194
    15.3209  15.6147  15.7880  16.1495  16.3050  16.8301  17.0470  17.5201
    17.6508  17.8487  18.1727  18.5744

     occupation numbers 
     1.0000   1.0000   1.0000   1.0000   1.0000   1.0000   1.0000   1.0000
     1.0000   1.0000   1.0000   1.0000   1.0000   1.0000   1.0000   1.0000
     1.0000   1.0000   1.0000   1.0000   1.0000   1.0000   1.0000   1.0000
     1.0158   0.9479  -0.0000  -0.0000  -0.0000  -0.0000  -0.0000  -0.0000
    -0.0000  -0.0000  -0.0000  -0.0000  -0.0000  -0.0000  -0.0000  -0.0000
    -0.0000  -0.0000  -0.0000  -0.0000  -0.0000  -0.0000  -0.0000  -0.0000
    -0.0000  -0.0000  -0.0000  -0.0000  -0.0000  -0.0000  -0.0000  -0.0000
    -0.0000  -0.0000  -0.0000  -0.0000

          k = 0.0526 0.3950 0.0000 (  5376 PWs)   bands (ev):

   -51.4151 -51.4012 -27.7802 -27.7737 -27.5866 -27.5785 -27.5174 -27.5086
    -9.1030  -9.0554  -8.6502  -8.5977  -1.6383  -1.5413  -0.6445  -0.5098
    -0.3429  -0.2728   0.6440   0.7028   1.7833   1.9380   1.9771   2.1123
     2.8739   2.9520   6.0102   6.1354   6.3354   6.5124   6.9938   7.2268
     7.9068   7.9653  10.5108  10.7778  10.8572  11.0733  11.3136  11.8821
    12.0060  12.8645  13.1648  13.9289  14.0878  14.4508  14.9131  15.0845
    15.3317  15.4367  16.1102  16.4968  16.7632  17.0894  17.4324  17.5103
    18.0809  18.2154  18.3845  18.4913

     occupation numbers 
     1.0000   1.0000   1.0000   1.0000   1.0000   1.0000   1.0000   1.0000
     1.0000   1.0000   1.0000   1.0000   1.0000   1.0000   1.0000   1.0000
     1.0000   1.0000   1.0000   1.0000   1.0000   1.0000   1.0000   1.0000
     1.0355   1.0181  -0.0000  -0.0000  -0.0000  -0.0000  -0.0000  -0.0000
    -0.0000  -0.0000  -0.0000  -0.0000  -0.0000  -0.0000  -0.0000  -0.0000
    -0.0000  -0.0000  -0.0000  -0.0000  -0.0000  -0.0000  -0.0000  -0.0000
    -0.0000  -0.0000  -0.0000  -0.0000  -0.0000  -0.0000  -0.0000  -0.0000
    -0.0000  -0.0000  -0.0000  -0.0000

          k = 0.0526 0.4558 0.0000 (  5383 PWs)   bands (ev):

   -51.4097 -51.3958 -27.8314 -27.8253 -27.5748 -27.5666 -27.5303 -27.5216
    -8.8746  -8.8346  -8.5764  -8.5345  -1.8368  -1.7739  -0.9083  -0.7856
    -0.3540  -0.3049   0.5342   0.5855   1.6615   1.9828   2.0382   2.0900
     2.9371   3.0304   6.1939   6.2612   6.5087   6.6604   7.2046   7.4395
     7.9785   8.0530  10.1090  10.4082  11.0050  11.1090  11.2485  11.7487
    12.0697  12.9239  13.2772  13.7119  13.8720  14.0129  14.5802  14.7043
    15.3578  15.6215  16.3348  16.8314  16.9388  17.4384  17.5215  17.9168
    18.0263  18.6989  18.8453  19.0824

     occupation numbers 
     1.0000   1.0000   1.0000   1.0000   1.0000   1.0000   1.0000   1.0000
     1.0000   1.0000   1.0000   1.0000   1.0000   1.0000   1.0000   1.0000
     1.0000   1.0000   1.0000   1.0000   1.0000   1.0000   1.0000   1.0000
     1.0248   0.9428  -0.0000  -0.0000  -0.0000  -0.0000  -0.0000  -0.0000
    -0.0000  -0.0000  -0.0000  -0.0000  -0.0000  -0.0000  -0.0000  -0.0000
    -0.0000  -0.0000  -0.0000  -0.0000  -0.0000  -0.0000  -0.0000  -0.0000
    -0.0000  -0.0000  -0.0000  -0.0000  -0.0000  -0.0000  -0.0000  -0.0000
    -0.0000  -0.0000  -0.0000  -0.0000

          k = 0.0526 0.5166 0.0000 (  5384 PWs)   bands (ev):

   -51.4062 -51.3922 -27.8643 -27.8584 -27.5672 -27.5589 -27.5386 -27.5299
    -8.7179  -8.6852  -8.5261  -8.4923  -1.9794  -1.9351  -1.0836  -0.9674
    -0.3867  -0.3571   0.4708   0.5158   1.5865   1.9132   2.1048   2.1563
     3.0539   3.1569   6.3295   6.3618   6.7072   6.7994   7.3233   7.5860
     7.9737   8.0850   9.5475  10.0479  11.1285  11.2124  11.4207  11.7644
    12.2538  12.8320  13.2637  13.5581  13.5811  13.8264  14.2803  14.4428
    15.1997  15.3775  16.2417  16.8932  17.3947  17.6237  17.8936  18.1393
    18.4757  18.9830  19.2613  19.5224

     occupation numbers 
     1.0000   1.0000   1.0000   1.0000   1.0000   1.0000   1.0000   1.0000
     1.0000   1.0000   1.0000   1.0000   1.0000   1.0000   1.0000   1.0000
     1.0000   1.0000   1.0000   1.0000   1.0000   1.0000   1.0000   1.0000
     0.9051   0.6572  -0.0000  -0.0000  -0.0000  -0.0000  -0.0000  -0.0000
    -0.0000  -0.0000  -0.0000  -0.0000  -0.0000  -0.0000  -0.0000  -0.0000
    -0.0000  -0.0000  -0.0000  -0.0000  -0.0000  -0.0000  -0.0000  -0.0000
    -0.0000  -0.0000  -0.0000  -0.0000  -0.0000  -0.0000  -0.0000  -0.0000
    -0.0000  -0.0000  -0.0000  -0.0000

          k = 0.0526 0.5774 0.0000 (  5380 PWs)   bands (ev):

   -51.4050 -51.3910 -27.8756 -27.8698 -27.5645 -27.5562 -27.5415 -27.5328
    -8.6618  -8.6325  -8.5080  -8.4775  -2.0304  -1.9927  -1.1445  -1.0302
    -0.4055  -0.3815   0.4500   0.4927   1.5615   1.8892   2.1285   2.1804
     3.1110   3.2156   6.3759   6.3962   6.8271   6.8473   7.3540   7.6444
     7.9563   8.0913   9.3228   9.8825  11.2115  11.2267  11.6019  11.6959
    12.5202  12.5947  13.0729  13.4467  13.7224  13.8630  14.1949  14.2515
    15.0317  15.1825  16.3835  16.8241  17.6474  17.6566  17.7313  18.4912
    18.7221  19.0321  19.5277  19.6674

     occupation numbers 
     1.0000   1.0000   1.0000   1.0000   1.0000   1.0000   1.0000   1.0000
     1.0000   1.0000   1.0000   1.0000   1.0000   1.0000   1.0000   1.0000
     1.0000   1.0000   1.0000   1.0000   1.0000   1.0000   1.0000   1.0000
     0.7825   0.4776  -0.0000  -0.0000  -0.0000  -0.0000  -0.0000  -0.0000
    -0.0000  -0.0000  -0.0000  -0.0000  -0.0000  -0.0000  -0.0000  -0.0000
    -0.0000  -0.0000  -0.0000  -0.0000  -0.0000  -0.0000  -0.0000  -0.0000
    -0.0000  -0.0000  -0.0000  -0.0000  -0.0000  -0.0000  -0.0000  -0.0000
    -0.0000  -0.0000  -0.0000  -0.0000

          k = 0.1053 0.1823 0.0000 (  5359 PWs)   bands (ev):

   -51.4372 -51.4234 -27.6345 -27.6270 -27.5637 -27.5554 -27.4665 -27.4573
    -9.9200  -9.8585  -8.9184  -8.8337  -1.6384  -1.3447   0.0641   0.1011
     0.5491   0.8290   1.2411   1.2634   1.3671   1.4248   2.3511   2.6510
     3.5114   3.6379   5.8146   6.0544   6.1781   6.2355   6.2522   6.4091
     7.1725   7.2289   9.4399  10.0008  10.5393  10.8581  11.9777  12.0685
    12.6965  13.0703  13.1402  13.2023  14.0138  14.1555  14.4945  14.8677
    14.9106  15.4509  15.7240  15.9005  16.0383  17.0225  17.4819  17.5104
    17.5526  18.2273  18.4331  19.3528

     occupation numbers 
     1.0000   1.0000   1.0000   1.0000   1.0000   1.0000   1.0000   1.0000
     1.0000   1.0000   1.0000   1.0000   1.0000   1.0000   1.0000   1.0000
     1.0000   1.0000   1.0000   1.0000   1.0000   1.0000   1.0000   1.0068
    -0.0333  -0.0241  -0.0000  -0.0000  -0.0000  -0.0000  -0.0000  -0.0000
    -0.0000  -0.0000  -0.0000  -0.0000  -0.0000  -0.0000  -0.0000  -0.0000
    -0.0000  -0.0000  -0.0000  -0.0000  -0.0000  -0.0000  -0.0000  -0.0000
    -0.0000  -0.0000  -0.0000  -0.0000  -0.0000  -0.0000  -0.0000  -0.0000
    -0.0000  -0.0000  -0.0000  -0.0000

          k = 0.1053 0.2431 0.0000 (  5365 PWs)   bands (ev):

   -51.4308 -51.4170 -27.6241 -27.6203 -27.6161 -27.6129 -27.4853 -27.4762
    -9.6974  -9.6384  -8.8444  -8.7679  -1.4613  -1.1923  -0.2135  -0.1848
     0.2722   0.4768   0.8785   0.9409   1.5111   1.5575   2.3211   2.5983
     3.2802   3.3394   5.7065   5.9557   6.1809   6.2970   6.3304   6.5175
     7.5034   7.5665   9.7686  10.3117  11.0760  11.5931  12.0565  12.3902
    12.4641  12.7713  12.9849  13.1980  14.1809  14.4000  14.6155  14.7895
    14.8971  15.4751  15.6920  16.0345  16.2108  16.4854  16.7284  17.5708
    17.6779  18.0630  18.3309  19.4458

     occupation numbers 
     1.0000   1.0000   1.0000   1.0000   1.0000   1.0000   1.0000   1.0000
     1.0000   1.0000   1.0000   1.0000   1.0000   1.0000   1.0000   1.0000
     1.0000   1.0000   1.0000   1.0000   1.0000   1.0000   1.0000   1.0034
     0.2852   0.1404  -0.0000  -0.0000  -0.0000  -0.0000  -0.0000  -0.0000
    -0.0000  -0.0000  -0.0000  -0.0000  -0.0000  -0.0000  -0.0000  -0.0000
    -0.0000  -0.0000  -0.0000  -0.0000  -0.0000  -0.0000  -0.0000  -0.0000
    -0.0000  -0.0000  -0.0000  -0.0000  -0.0000  -0.0000  -0.0000  -0.0000
    -0.0000  -0.0000  -0.0000  -0.0000

          k = 0.1053 0.3039 0.0000 (  5375 PWs)   bands (ev):

   -51.4238 -51.4099 -27.6884 -27.6811 -27.6054 -27.5976 -27.5059 -27.4970
    -9.4424  -9.3872  -8.7595  -8.6928  -1.3907  -1.1930  -0.3734  -0.3125
    -0.0751   0.0562   0.6277   0.7363   1.6124   1.6545   2.1988   2.4597
     3.0581   3.0986   5.6971   5.9470   6.2638   6.4077   6.5208   6.7191
     7.7858   7.8445  10.1488  10.6199  11.2601  11.7654  12.0128  12.2871
    12.5451  12.6742  13.1133  13.1362  14.2806  14.7064  14.7659  14.8012
    15.0661  15.2188  15.4172  15.9278  16.1349  16.7719  16.8428  17.6458
    17.8396  18.0746  18.3379  19.2704

     occupation numbers 
     1.0000   1.0000   1.0000   1.0000   1.0000   1.0000   1.0000   1.0000
     1.0000   1.0000   1.0000   1.0000   1.0000   1.0000   1.0000   1.0000
     1.0000   1.0000   1.0000   1.0000   1.0000   1.0000   1.0000   1.0004
     0.8974   0.8126  -0.0000  -0.0000  -0.0000  -0.0000  -0.0000  -0.0000
    -0.0000  -0.0000  -0.0000  -0.0000  -0.0000  -0.0000  -0.0000  -0.0000
    -0.0000  -0.0000  -0.0000  -0.0000  -0.0000  -0.0000  -0.0000  -0.0000
    -0.0000  -0.0000  -0.0000  -0.0000  -0.0000  -0.0000  -0.0000  -0.0000
    -0.0000  -0.0000  -0.0000  -0.0000

          k = 0.1053 0.3646 0.0000 (  5378 PWs)   bands (ev):

   -51.4169 -51.4030 -27.7503 -27.7435 -27.5906 -27.5826 -27.5261 -27.5173
    -9.1788  -9.1289  -8.6719  -8.6159  -1.4926  -1.3725  -0.5138  -0.4065
    -0.3108  -0.2431   0.5002   0.6155   1.6467   1.6884   2.0239   2.2798
     2.9521   3.0018   5.8034   6.0482   6.4037   6.5182   6.7758   6.9784
     7.9738   8.0210  10.5348  10.8935  11.2335  11.2519  11.7032  12.1098
    12.2692  12.9652  13.1710  13.7304  14.1862  14.3865  14.6838  15.0042
    15.0769  15.3671  15.5076  15.9901  16.2241  17.1544  17.2916  17.6296
    18.0558  18.3292  18.3877  18.6222

     occupation numbers 
     1.0000   1.0000   1.0000   1.0000   1.0000   1.0000   1.0000   1.0000
     1.0000   1.0000   1.0000   1.0000   1.0000   1.0000   1.0000   1.0000
     1.0000   1.0000   1.0000   1.0000   1.0000   1.0000   1.0000   1.0000
     1.0180   0.9789  -0.0000  -0.0000  -0.0000  -0.0000  -0.0000  -0.0000
    -0.0000  -0.0000  -0.0000  -0.0000  -0.0000  -0.0000  -0.0000  -0.0000
    -0.0000  -0.0000  -0.0000  -0.0000  -0.0000  -0.0000  -0.0000  -0.0000
    -0.0000  -0.0000  -0.0000  -0.0000  -0.0000  -0.0000  -0.0000  -0.0000
    -0.0000  -0.0000  -0.0000  -0.0000

          k = 0.1053 0.4254 0.0000 (  5382 PWs)   bands (ev):

   -51.4110 -51.3971 -27.8032 -27.7969 -27.5777 -27.5696 -27.5434 -27.5348
    -8.9356  -8.8927  -8.5914  -8.5462  -1.6676  -1.5914  -0.8349  -0.7375
    -0.3076  -0.2464   0.4483   0.5478   1.6538   1.7035   1.8431   2.1037
     2.9916   3.0568   5.9985   6.2142   6.5567   6.6260   7.0470   7.2412
     8.0207   8.0919  10.5145  10.7600  11.0976  11.3297  11.4073  11.9880
    12.2167  13.0578  13.2722  13.6480  14.0062  14.1021  14.2799  15.0164
    15.3952  15.4545  16.0278  16.4431  16.5735  16.9585  17.5805  17.6619
    17.9510  18.1966  18.5445  19.0132

     occupation numbers 
     1.0000   1.0000   1.0000   1.0000   1.0000   1.0000   1.0000   1.0000
     1.0000   1.0000   1.0000   1.0000   1.0000   1.0000   1.0000   1.0000
     1.0000   1.0000   1.0000   1.0000   1.0000   1.0000   1.0000   1.0000
     0.9892   0.8999  -0.0000  -0.0000  -0.0000  -0.0000  -0.0000  -0.0000
    -0.0000  -0.0000  -0.0000  -0.0000  -0.0000  -0.0000  -0.0000  -0.0000
    -0.0000  -0.0000  -0.0000  -0.0000  -0.0000  -0.0000  -0.0000  -0.0000
    -0.0000  -0.0000  -0.0000  -0.0000  -0.0000  -0.0000  -0.0000  -0.0000
    -0.0000  -0.0000  -0.0000  -0.0000

          k = 0.1053 0.4862 0.0000 (  5384 PWs)   bands (ev):

   -51.4067 -51.3927 -27.8417 -27.8357 -27.5683 -27.5601 -27.5562 -27.5476
    -8.7458  -8.7107  -8.5287  -8.4928  -1.8174  -1.7674  -1.0825  -0.9904
    -0.3301  -0.2962   0.4393   0.5148   1.6604   1.7072   1.7362   1.9648
     3.1142   3.1956   6.1961   6.3225   6.7118   6.7789   7.3015   7.4722
     7.9313   8.0650   9.8949  10.4181  11.3284  11.4702  11.6247  11.9477
    12.3242  13.0533  13.1158  13.4501  13.7502  13.8827  14.0649  14.7204
    15.4487  15.6314  16.1410  16.5771  16.9735  17.2391  17.6497  17.8386
    18.1713  18.3253  18.6984  19.2257

     occupation numbers 
     1.0000   1.0000   1.0000   1.0000   1.0000   1.0000   1.0000   1.0000
     1.0000   1.0000   1.0000   1.0000   1.0000   1.0000   1.0000   1.0000
     1.0000   1.0000   1.0000   1.0000   1.0000   1.0000   1.0000   1.0000
     0.7745   0.5400  -0.0000  -0.0000  -0.0000  -0.0000  -0.0000  -0.0000
    -0.0000  -0.0000  -0.0000  -0.0000  -0.0000  -0.0000  -0.0000  -0.0000
    -0.0000  -0.0000  -0.0000  -0.0000  -0.0000  -0.0000  -0.0000  -0.0000
    -0.0000  -0.0000  -0.0000  -0.0000  -0.0000  -0.0000  -0.0000  -0.0000
    -0.0000  -0.0000  -0.0000  -0.0000

          k = 0.1053 0.5470 0.0000 (  5382 PWs)   bands (ev):

   -51.4044 -51.3904 -27.8620 -27.8561 -27.5633 -27.5628 -27.5550 -27.5543
    -8.6407  -8.6116  -8.4938  -8.4637  -1.8992  -1.8649  -1.2134  -1.1232
    -0.3661  -0.3451   0.4465   0.5017   1.5996   1.7025   1.7643   1.8870
     3.2198   3.3118   6.2939   6.3394   6.8475   6.9366   7.5124   7.6439
     7.7727   7.9800   9.4958  10.1106  11.5228  11.6814  11.8161  12.0638
    12.4427  12.7549  12.8136  13.4243  13.6623  13.8130  14.0794  14.4924
    15.1446  15.4896  16.2713  16.6823  17.2229  17.4251  17.7278  17.9461
    18.4394  18.5654  19.0198  19.3725

     occupation numbers 
     1.0000   1.0000   1.0000   1.0000   1.0000   1.0000   1.0000   1.0000
     1.0000   1.0000   1.0000   1.0000   1.0000   1.0000   1.0000   1.0000
     1.0000   1.0000   1.0000   1.0000   1.0000   1.0000   1.0000   1.0000
     0.4645   0.2026  -0.0000  -0.0000  -0.0000  -0.0000  -0.0000  -0.0000
    -0.0000  -0.0000  -0.0000  -0.0000  -0.0000  -0.0000  -0.0000  -0.0000
    -0.0000  -0.0000  -0.0000  -0.0000  -0.0000  -0.0000  -0.0000  -0.0000
    -0.0000  -0.0000  -0.0000  -0.0000  -0.0000  -0.0000  -0.0000  -0.0000
    -0.0000  -0.0000  -0.0000  -0.0000

          k = 0.1579 0.2735 0.0000 (  5376 PWs)   bands (ev):

   -51.4244 -51.4106 -27.6772 -27.6699 -27.6068 -27.5990 -27.5092 -27.5003
    -9.4677  -9.4120  -8.7672  -8.6995  -1.3616  -1.1484  -0.3565  -0.3021
     0.0380   0.1346   0.5157   0.6386   1.5364   1.5773   2.3117   2.5479
     3.1072   3.1159   5.6401   5.9031   6.2710   6.4000   6.4400   6.6299
     7.8121   7.8756  10.1255  10.6253  11.4164  11.9445  12.1072  12.4425
    12.5652  12.8999  12.9562  13.0275  14.2346  14.4780  14.6952  14.7421
    14.8442  15.0749  15.2052  16.0199  16.0256  16.7440  16.7728  17.7345
    17.9330  18.1936  18.3388  19.6558

     occupation numbers 
     1.0000   1.0000   1.0000   1.0000   1.0000   1.0000   1.0000   1.0000
     1.0000   1.0000   1.0000   1.0000   1.0000   1.0000   1.0000   1.0000
     1.0000   1.0000   1.0000   1.0000   1.0000   1.0000   1.0000   1.0016
     0.7920   0.7702  -0.0000  -0.0000  -0.0000  -0.0000  -0.0000  -0.0000
    -0.0000  -0.0000  -0.0000  -0.0000  -0.0000  -0.0000  -0.0000  -0.0000
    -0.0000  -0.0000  -0.0000  -0.0000  -0.0000  -0.0000  -0.0000  -0.0000
    -0.0000  -0.0000  -0.0000  -0.0000  -0.0000  -0.0000  -0.0000  -0.0000
    -0.0000  -0.0000  -0.0000  -0.0000

          k = 0.1579 0.3343 0.0000 (  5385 PWs)   bands (ev):

   -51.4179 -51.4040 -27.7300 -27.7231 -27.5927 -27.5847 -27.5352 -27.5265
    -9.2184  -9.1674  -8.6829  -8.6250  -1.3929  -1.2530  -0.4141  -0.3426
    -0.2699  -0.2186   0.3577   0.5187   1.4528   1.4911   2.2006   2.4078
     2.9996   3.0259   5.6854   5.9845   6.4333   6.5267   6.6202   6.8012
     8.0388   8.0930  10.5212  10.9378  11.4109  11.6257  12.0270  12.2668
    12.6312  13.1045  13.1292  13.5086  14.1292  14.3191  14.5522  14.6295
    14.7548  15.0844  15.3257  15.7413  16.0387  17.1558  17.1915  17.5230
    18.1254  18.2691  18.7542  19.0041

     occupation numbers 
     1.0000   1.0000   1.0000   1.0000   1.0000   1.0000   1.0000   1.0000
     1.0000   1.0000   1.0000   1.0000   1.0000   1.0000   1.0000   1.0000
     1.0000   1.0000   1.0000   1.0000   1.0000   1.0000   1.0000   1.0001
     0.9812   0.9493  -0.0000  -0.0000  -0.0000  -0.0000  -0.0000  -0.0000
    -0.0000  -0.0000  -0.0000  -0.0000  -0.0000  -0.0000  -0.0000  -0.0000
    -0.0000  -0.0000  -0.0000  -0.0000  -0.0000  -0.0000  -0.0000  -0.0000
    -0.0000  -0.0000  -0.0000  -0.0000  -0.0000  -0.0000  -0.0000  -0.0000
    -0.0000  -0.0000  -0.0000  -0.0000

          k = 0.1579 0.3950 0.0000 (  5386 PWs)   bands (ev):

   -51.4119 -51.3980 -27.7773 -27.7708 -27.5797 -27.5715 -27.5598 -27.5512
    -8.9751  -8.9304  -8.6000  -8.5524  -1.5102  -1.4170  -0.7654  -0.7071
    -0.2620  -0.1767   0.3364   0.4879   1.3185   1.3573   2.0196   2.2178
     3.0227   3.0644   5.8491   6.1635   6.5987   6.6267   6.8480   7.0246
     8.1380   8.2045  10.7906  11.0787  11.1916  11.4303  11.7423  12.2732
    12.4694  13.1343  13.3274  13.6306  13.8449  14.1815  14.4146  14.9910
    15.1629  15.3271  15.3903  15.8657  16.1878  17.1911  17.3142  17.5028
    17.8698  18.1766  18.6558  18.9070

     occupation numbers 
     1.0000   1.0000   1.0000   1.0000   1.0000   1.0000   1.0000   1.0000
     1.0000   1.0000   1.0000   1.0000   1.0000   1.0000   1.0000   1.0000
     1.0000   1.0000   1.0000   1.0000   1.0000   1.0000   1.0000   1.0000
     0.9536   0.8857  -0.0000  -0.0000  -0.0000  -0.0000  -0.0000  -0.0000
    -0.0000  -0.0000  -0.0000  -0.0000  -0.0000  -0.0000  -0.0000  -0.0000
    -0.0000  -0.0000  -0.0000  -0.0000  -0.0000  -0.0000  -0.0000  -0.0000
    -0.0000  -0.0000  -0.0000  -0.0000  -0.0000  -0.0000  -0.0000  -0.0000
    -0.0000  -0.0000  -0.0000  -0.0000

          k = 0.1579 0.4558 0.0000 (  5376 PWs)   bands (ev):

   -51.4071 -51.3931 -27.8147 -27.8085 -27.5799 -27.5715 -27.5691 -27.5609
    -8.7676  -8.7304  -8.5287  -8.4910  -1.6250  -1.5617  -1.0833  -1.0225
    -0.2528  -0.1984   0.3768   0.5026   1.2227   1.2770   1.8207   2.0271
     3.1471   3.2008   6.0475   6.2720   6.7347   6.7818   7.0974   7.2508
     8.0929   8.2249  10.3086  10.8230  11.4541  11.5921  11.7538  12.2465
    12.5151  12.9072  13.3543  13.5489  13.6615  14.1372  14.2860  14.9852
    15.3725  15.5179  15.9127  16.3803  16.4907  16.6688  17.2024  17.6605
    17.7562  18.1825  18.3519  18.8635

     occupation numbers 
     1.0000   1.0000   1.0000   1.0000   1.0000   1.0000   1.0000   1.0000
     1.0000   1.0000   1.0000   1.0000   1.0000   1.0000   1.0000   1.0000
     1.0000   1.0000   1.0000   1.0000   1.0000   1.0000   1.0000   1.0000
     0.6854   0.5237  -0.0000  -0.0000  -0.0000  -0.0000  -0.0000  -0.0000
    -0.0000  -0.0000  -0.0000  -0.0000  -0.0000  -0.0000  -0.0000  -0.0000
    -0.0000  -0.0000  -0.0000  -0.0000  -0.0000  -0.0000  -0.0000  -0.0000
    -0.0000  -0.0000  -0.0000  -0.0000  -0.0000  -0.0000  -0.0000  -0.0000
    -0.0000  -0.0000  -0.0000  -0.0000

          k = 0.1579 0.5166 0.0000 (  5381 PWs)   bands (ev):

   -51.4039 -51.3900 -27.8386 -27.8326 -27.5930 -27.5847 -27.5624 -27.5540
    -8.6264  -8.5965  -8.4796  -8.4494  -1.6960  -1.6579  -1.2874  -1.2248
    -0.3016  -0.2689   0.4387   0.5315   1.1858   1.2598   1.6606   1.8825
     3.2964   3.3648   6.1472   6.2300   6.8836   7.0157   7.3230   7.4270
     7.9606   8.1794   9.8154  10.4557  11.7127  11.8915  12.1364  12.2127
    12.5905  12.6870  13.0450  13.4117  13.7807  14.0260  14.1704  14.7843
    15.3053  15.7640  16.0169  16.3092  16.8180  16.9796  17.3226  17.4321
    17.8915  18.3397  18.5339  18.9298

     occupation numbers 
     1.0000   1.0000   1.0000   1.0000   1.0000   1.0000   1.0000   1.0000
     1.0000   1.0000   1.0000   1.0000   1.0000   1.0000   1.0000   1.0000
     1.0000   1.0000   1.0000   1.0000   1.0000   1.0000   1.0000   1.0000
     0.2415   0.0917  -0.0000  -0.0000  -0.0000  -0.0000  -0.0000  -0.0000
    -0.0000  -0.0000  -0.0000  -0.0000  -0.0000  -0.0000  -0.0000  -0.0000
    -0.0000  -0.0000  -0.0000  -0.0000  -0.0000  -0.0000  -0.0000  -0.0000
    -0.0000  -0.0000  -0.0000  -0.0000  -0.0000  -0.0000  -0.0000  -0.0000
    -0.0000  -0.0000  -0.0000  -0.0000

          k = 0.1579 0.5774 0.0000 (  5390 PWs)   bands (ev):

   -51.4029 -51.3889 -27.8468 -27.8409 -27.5976 -27.5893 -27.5600 -27.5517
    -8.5762  -8.5497  -8.4618  -8.4345  -1.7167  -1.6936  -1.3576  -1.2943
    -0.3322  -0.3039   0.4711   0.5442   1.1790   1.2603   1.5973   1.8274
     3.3657   3.4413   6.1556   6.1894   6.9790   7.1235   7.4374   7.4949
     7.8713   8.1439   9.6192  10.2892  11.9531  12.0435  12.2418  12.3653
    12.4284  12.7176  12.8328  13.1802  13.8236  14.0556  14.3617  14.4870
    15.2771  15.5376  16.2636  16.4605  16.5941  17.1875  17.3376  17.5640
    17.9740  18.2881  18.7833  18.9561

     occupation numbers 
     1.0000   1.0000   1.0000   1.0000   1.0000   1.0000   1.0000   1.0000
     1.0000   1.0000   1.0000   1.0000   1.0000   1.0000   1.0000   1.0000
     1.0000   1.0000   1.0000   1.0000   1.0000   1.0000   1.0000   1.0000
     0.0901  -0.0030  -0.0000  -0.0000  -0.0000  -0.0000  -0.0000  -0.0000
    -0.0000  -0.0000  -0.0000  -0.0000  -0.0000  -0.0000  -0.0000  -0.0000
    -0.0000  -0.0000  -0.0000  -0.0000  -0.0000  -0.0000  -0.0000  -0.0000
    -0.0000  -0.0000  -0.0000  -0.0000  -0.0000  -0.0000  -0.0000  -0.0000
    -0.0000  -0.0000  -0.0000  -0.0000

          k = 0.2105 0.3646 0.0000 (  5370 PWs)   bands (ev):

   -51.4122 -51.3983 -27.7662 -27.7596 -27.5803 -27.5722 -27.5677 -27.5592
    -8.9887  -8.9434  -8.6027  -8.5544  -1.4444  -1.3416  -0.7287  -0.7013
    -0.2419  -0.1387   0.2873   0.4596   1.1771   1.2112   2.0968   2.2641
     3.0315   3.0642   5.7944   6.1409   6.6133   6.6331   6.7651   6.9324
     8.2034   8.2509  10.8541  11.2026  11.3206  11.4119  11.9133  12.3744
    12.6723  13.1948  13.2789  13.5217  14.0420  14.1656  14.5077  14.6364
    14.9194  15.3087  15.4793  15.6336  15.8783  17.1337  17.3702  17.3813
    17.9731  18.1733  18.6813  19.1831

     occupation numbers 
     1.0000   1.0000   1.0000   1.0000   1.0000   1.0000   1.0000   1.0000
     1.0000   1.0000   1.0000   1.0000   1.0000   1.0000   1.0000   1.0000
     1.0000   1.0000   1.0000   1.0000   1.0000   1.0000   1.0000   1.0000
     0.9413   0.8862  -0.0000  -0.0000  -0.0000  -0.0000  -0.0000  -0.0000
    -0.0000  -0.0000  -0.0000  -0.0000  -0.0000  -0.0000  -0.0000  -0.0000
    -0.0000  -0.0000  -0.0000  -0.0000  -0.0000  -0.0000  -0.0000  -0.0000
    -0.0000  -0.0000  -0.0000  -0.0000  -0.0000  -0.0000  -0.0000  -0.0000
    -0.0000  -0.0000  -0.0000  -0.0000

          k = 0.2105 0.4254 0.0000 (  5371 PWs)   bands (ev):

   -51.4073 -51.3933 -27.7943 -27.7880 -27.5986 -27.5903 -27.5696 -27.5614
    -8.7795  -8.7411  -8.5280  -8.4893  -1.4886  -1.4084  -1.0805  -1.0460
    -0.1780  -0.0888   0.3313   0.4898   0.9012   0.9327   1.9185   2.0686
     3.1602   3.1914   5.9552   6.2336   6.7485   6.7914   6.9497   7.0921
     8.2703   8.3371  10.6984  11.0213  11.4830  11.5288  11.7870  12.5149
    12.6946  12.8831  13.1943  13.7147  14.0710  14.3711  14.5987  15.1684
    15.2564  15.2875  15.3913  15.7746  16.1111  16.8242  16.9673  17.4089
    17.6610  18.0829  18.1946  18.7882

     occupation numbers 
     1.0000   1.0000   1.0000   1.0000   1.0000   1.0000   1.0000   1.0000
     1.0000   1.0000   1.0000   1.0000   1.0000   1.0000   1.0000   1.0000
     1.0000   1.0000   1.0000   1.0000   1.0000   1.0000   1.0000   1.0000
     0.6474   0.5529  -0.0000  -0.0000  -0.0000  -0.0000  -0.0000  -0.0000
    -0.0000  -0.0000  -0.0000  -0.0000  -0.0000  -0.0000  -0.0000  -0.0000
    -0.0000  -0.0000  -0.0000  -0.0000  -0.0000  -0.0000  -0.0000  -0.0000
    -0.0000  -0.0000  -0.0000  -0.0000  -0.0000  -0.0000  -0.0000  -0.0000
    -0.0000  -0.0000  -0.0000  -0.0000

          k = 0.2105 0.4862 0.0000 (  5366 PWs)   bands (ev):

   -51.4037 -51.3897 -27.8131 -27.8069 -27.6231 -27.6149 -27.5618 -27.5534
    -8.6184  -8.5876  -8.4690  -8.4386  -1.4960  -1.4386  -1.3418  -1.3006
    -0.2115  -0.1450   0.4271   0.5592   0.7153   0.7818   1.7231   1.8756
     3.3452   3.3825   6.0123   6.1276   6.8955   7.0366   7.1424   7.2456
     8.2547   8.3810  10.2198  10.7822  11.4407  11.8271  11.9719  12.6092
    12.7290  12.9306  13.1938  13.9311  13.9830  14.3573  14.5947  14.9852
    15.2757  15.5438  15.8614  16.1164  16.3661  16.5476  16.6893  17.1096
    17.6628  17.9884  18.0429  18.5824

     occupation numbers 
     1.0000   1.0000   1.0000   1.0000   1.0000   1.0000   1.0000   1.0000
     1.0000   1.0000   1.0000   1.0000   1.0000   1.0000   1.0000   1.0000
     1.0000   1.0000   1.0000   1.0000   1.0000   1.0000   1.0000   1.0000
     0.1284   0.0630  -0.0000  -0.0000  -0.0000  -0.0000  -0.0000  -0.0000
    -0.0000  -0.0000  -0.0000  -0.0000  -0.0000  -0.0000  -0.0000  -0.0000
    -0.0000  -0.0000  -0.0000  -0.0000  -0.0000  -0.0000  -0.0000  -0.0000
    -0.0000  -0.0000  -0.0000  -0.0000  -0.0000  -0.0000  -0.0000  -0.0000
    -0.0000  -0.0000  -0.0000  -0.0000

          k = 0.2105 0.5470 0.0000 (  5357 PWs)   bands (ev):

   -51.4017 -51.3878 -27.8223 -27.8163 -27.6366 -27.6285 -27.5576 -27.5492
    -8.5304  -8.5056  -8.4357  -8.4102  -1.4905  -1.4651  -1.4564  -1.4259
    -0.2890  -0.2325   0.5155   0.6145   0.6451   0.7383   1.5868   1.7487
     3.4928   3.5425   5.9571   5.9902   7.0546   7.1504   7.3000   7.3719
     8.2174   8.3936   9.8946  10.5437  11.4354  12.0680  12.2119  12.5818
    12.9309  13.0763  13.1910  13.6087  14.1001  14.3523  14.5628  14.8759
    15.2804  15.6440  15.8215  16.1176  16.4048  16.7624  16.8410  16.9508
    17.7419  17.9219  18.0816  18.7112

     occupation numbers 
     1.0000   1.0000   1.0000   1.0000   1.0000   1.0000   1.0000   1.0000
     1.0000   1.0000   1.0000   1.0000   1.0000   1.0000   1.0000   1.0000
     1.0000   1.0000   1.0000   1.0000   1.0000   1.0000   1.0000   1.0000
    -0.0292  -0.0355  -0.0000  -0.0000  -0.0000  -0.0000  -0.0000  -0.0000
    -0.0000  -0.0000  -0.0000  -0.0000  -0.0000  -0.0000  -0.0000  -0.0000
    -0.0000  -0.0000  -0.0000  -0.0000  -0.0000  -0.0000  -0.0000  -0.0000
    -0.0000  -0.0000  -0.0000  -0.0000  -0.0000  -0.0000  -0.0000  -0.0000
    -0.0000  -0.0000  -0.0000  -0.0000

          k = 0.2632 0.4558 0.0000 (  5360 PWs)   bands (ev):

   -51.4036 -51.3896 -27.8007 -27.7945 -27.6371 -27.6291 -27.5615 -27.5532
    -8.6158  -8.5847  -8.4651  -8.4346  -1.4109  -1.3616  -1.3483  -1.3134
    -0.1388  -0.0430   0.4192   0.4964   0.5208   0.5772   1.7531   1.8699
     3.3668   3.3814   5.9586   6.0868   6.8822   7.0141   7.0910   7.2096
     8.3984   8.4440  10.5756  10.7179  11.4949  11.5489  11.8807  12.7421
    12.8928  13.0653  13.1590  14.1402  14.4639  14.4798  14.7975  15.1180
    15.2289  15.4677  15.5927  15.7054  16.1615  16.4227  16.6501  17.1585
    17.2294  17.7850  17.9255  18.7171

     occupation numbers 
     1.0000   1.0000   1.0000   1.0000   1.0000   1.0000   1.0000   1.0000
     1.0000   1.0000   1.0000   1.0000   1.0000   1.0000   1.0000   1.0000
     1.0000   1.0000   1.0000   1.0000   1.0000   1.0000   1.0000   1.0000
     0.0882   0.0645  -0.0000  -0.0000  -0.0000  -0.0000  -0.0000  -0.0000
    -0.0000  -0.0000  -0.0000  -0.0000  -0.0000  -0.0000  -0.0000  -0.0000
    -0.0000  -0.0000  -0.0000  -0.0000  -0.0000  -0.0000  -0.0000  -0.0000
    -0.0000  -0.0000  -0.0000  -0.0000  -0.0000  -0.0000  -0.0000  -0.0000
    -0.0000  -0.0000  -0.0000  -0.0000

          k = 0.2632 0.5166 0.0000 (  5356 PWs)   bands (ev):

   -51.4011 -51.3872 -27.7992 -27.7931 -27.6676 -27.6597 -27.5563 -27.5479
    -8.5068  -8.4828  -8.4210  -8.3962  -1.5526  -1.5194  -1.2760  -1.2149
    -0.2246  -0.1178   0.2189   0.3110   0.5494   0.6776   1.5844   1.6848
     3.5809   3.5991   5.8131   5.8513   6.9890   7.0640   7.2901   7.4367
     8.4733   8.5453  10.2656  10.6567  11.1285  11.5943  12.1248  12.9952
    13.1485  13.3572  13.5223  14.2376  14.3462  14.7109  14.8025  15.0802
    15.2858  15.3375  15.7069  15.9353  16.1827  16.2876  16.5782  16.7183
    17.1028  17.5149  17.9882  18.6198

     occupation numbers 
     1.0000   1.0000   1.0000   1.0000   1.0000   1.0000   1.0000   1.0000
     1.0000   1.0000   1.0000   1.0000   1.0000   1.0000   1.0000   1.0000
     1.0000   1.0000   1.0000   1.0000   1.0000   1.0000   1.0000   1.0000
    -0.0328  -0.0304  -0.0000  -0.0000  -0.0000  -0.0000  -0.0000  -0.0000
    -0.0000  -0.0000  -0.0000  -0.0000  -0.0000  -0.0000  -0.0000  -0.0000
    -0.0000  -0.0000  -0.0000  -0.0000  -0.0000  -0.0000  -0.0000  -0.0000
    -0.0000  -0.0000  -0.0000  -0.0000  -0.0000  -0.0000  -0.0000  -0.0000
    -0.0000  -0.0000  -0.0000  -0.0000

          k = 0.2632 0.5774 0.0000 (  5354 PWs)   bands (ev):

   -51.4003 -51.3863 -27.7969 -27.7908 -27.6799 -27.6720 -27.5545 -27.5461
    -8.4687  -8.4484  -8.4047  -8.3816  -1.6181  -1.5838  -1.1891  -1.1546
    -0.3136  -0.2240   0.1593   0.2745   0.6144   0.7285   1.5068   1.6024
     3.6802   3.7070   5.7149   5.7366   7.0256   7.0619   7.4139   7.5275
     8.4949   8.5881  10.1158  10.6780  10.9463  11.6246  12.2306  13.0947
    13.3990  13.4920  13.8155  13.8748  14.4587  14.5887  14.7956  15.0742
    15.3303  15.5009  15.5865  15.8007  16.1951  16.4217  16.4600  16.7833
    17.1171  17.2883  18.2424  18.6566

     occupation numbers 
     1.0000   1.0000   1.0000   1.0000   1.0000   1.0000   1.0000   1.0000
     1.0000   1.0000   1.0000   1.0000   1.0000   1.0000   1.0000   1.0000
     1.0000   1.0000   1.0000   1.0000   1.0000   1.0000   1.0000   1.0000
    -0.0171  -0.0132  -0.0000  -0.0000  -0.0000  -0.0000  -0.0000  -0.0000
    -0.0000  -0.0000  -0.0000  -0.0000  -0.0000  -0.0000  -0.0000  -0.0000
    -0.0000  -0.0000  -0.0000  -0.0000  -0.0000  -0.0000  -0.0000  -0.0000
    -0.0000  -0.0000  -0.0000  -0.0000  -0.0000  -0.0000  -0.0000  -0.0000
    -0.0000  -0.0000  -0.0000  -0.0000

          k = 0.3158 0.5470 0.0000 (  5374 PWs)   bands (ev):

   -51.3998 -51.3858 -27.7795 -27.7735 -27.7036 -27.6957 -27.5535 -27.5450
    -8.4476  -8.4292  -8.3935  -8.3707  -1.6668  -1.6348  -1.0160  -0.9489
    -0.3749  -0.3001  -0.0000   0.0573   0.6606   0.7839   1.4766   1.5254
     3.7708   3.7768   5.6001   5.6235   6.9816   7.0229   7.4982   7.5843
     8.6207   8.6583  10.3597  10.5714  10.8340  11.3660  12.2178  13.4563
    13.4971  13.6784  14.0272  14.2652  14.4335  14.6976  14.8616  15.0275
    15.1635  15.5752  15.6159  15.8147  16.1467  16.3355  16.3488  16.5907
    16.6107  17.1669  18.3534  18.5471

     occupation numbers 
     1.0000   1.0000   1.0000   1.0000   1.0000   1.0000   1.0000   1.0000
     1.0000   1.0000   1.0000   1.0000   1.0000   1.0000   1.0000   1.0000
     1.0000   1.0000   1.0000   1.0000   1.0000   1.0000   1.0000   1.0000
    -0.0064  -0.0059  -0.0000  -0.0000  -0.0000  -0.0000  -0.0000  -0.0000
    -0.0000  -0.0000  -0.0000  -0.0000  -0.0000  -0.0000  -0.0000  -0.0000
    -0.0000  -0.0000  -0.0000  -0.0000  -0.0000  -0.0000  -0.0000  -0.0000
    -0.0000  -0.0000  -0.0000  -0.0000  -0.0000  -0.0000  -0.0000  -0.0000
    -0.0000  -0.0000  -0.0000  -0.0000

     the Fermi energy is     3.2084 ev

!    total energy              =    -907.91149495 Ry

     total all-electron energy =    -18448.320517 Ry
     estimated scf accuracy    <          4.2E-10 Ry
     smearing contrib. (-TS)   =      -0.00193214 Ry
     internal energy E=F+TS    =    -907.90956281 Ry

     The total energy is F=E-TS. E is the sum of the following terms:
     one-electron contribution =   -1048.08172902 Ry
     hartree contribution      =     537.56946802 Ry
     xc contribution           =     -65.32318870 Ry
     ewald contribution        =     256.18108273 Ry
     one-center paw contrib.   =    -588.25519584 Ry
      -> PAW hartree energy AE =     100.87604922 Ry
      -> PAW hartree energy PS =    -100.36192439 Ry
      -> PAW xc energy AE      =    -324.79852743 Ry
      -> PAW xc energy PS      =      30.15761982 Ry
      -> total E_H with PAW    =     538.08359285 Ry
      -> total E_XC with PAW   =    -359.96409632 Ry

     convergence has been achieved in  14 iterations

     Writing output data file ./tmp/NbS2_bi.save/

     init_run     :     11.06s CPU     11.31s WALL (       1 calls)
     electrons    :    529.36s CPU    536.47s WALL (       1 calls)

     Called by init_run:
     wfcinit      :      9.61s CPU      9.74s WALL (       1 calls)
     wfcinit:atom :      0.05s CPU      0.05s WALL (      40 calls)
     wfcinit:wfcr :      9.36s CPU      9.48s WALL (      40 calls)
     potinit      :      0.35s CPU      0.36s WALL (       1 calls)
     hinit0       :      0.62s CPU      0.63s WALL (       1 calls)

     Called by electrons:
     c_bands      :    460.44s CPU    463.70s WALL (      15 calls)
     sum_band     :     61.14s CPU     63.58s WALL (      15 calls)
     v_of_rho     :      0.48s CPU      0.51s WALL (      15 calls)
     v_h          :      0.28s CPU      0.28s WALL (      15 calls)
     v_xc         :      0.20s CPU      0.23s WALL (      15 calls)
     newd         :      6.04s CPU      7.49s WALL (      15 calls)
     PAW_pot      :      0.88s CPU      0.88s WALL (      15 calls)
     mix_rho      :      0.53s CPU      0.54s WALL (      15 calls)

     Called by c_bands:
     init_us_2    :      1.86s CPU      1.89s WALL (    1240 calls)
     cegterg      :    455.41s CPU    458.53s WALL (     600 calls)

     Called by sum_band:
     sum_band:wei :      0.04s CPU      0.04s WALL (      15 calls)
     sum_band:loo :     52.17s CPU     52.81s WALL (      15 calls)
     sum_band:buf :      0.79s CPU      0.79s WALL (     600 calls)
     sum_band:ini :      0.85s CPU      0.85s WALL (     600 calls)
     sum_band:cal :     13.46s CPU     13.51s WALL (     600 calls)
     sum_band:bec :      0.07s CPU      0.07s WALL (     600 calls)
     addusdens    :      8.58s CPU     10.36s WALL (      15 calls)
     addusd:skk   :      0.04s CPU      0.06s WALL (      30 calls)
     addusd:dgemm :      3.32s CPU      4.87s WALL (      30 calls)
     addusd:qvan2 :      4.71s CPU      4.71s WALL (      30 calls)

     Called by *egterg:
     cdiaghg      :     15.91s CPU     15.95s WALL (    2777 calls)
     cegterg:over :     53.48s CPU     53.58s WALL (    2217 calls)
     cegterg:upda :     29.44s CPU     29.48s WALL (    2217 calls)
     cegterg:last :     84.63s CPU     84.71s WALL (    1059 calls)
     h_psi        :    223.70s CPU    226.57s WALL (    2857 calls)
     s_psi        :     29.62s CPU     29.68s WALL (    2857 calls)
     g_psi        :      0.58s CPU      0.58s WALL (    2217 calls)

     Called by h_psi:
     h_psi:calbec :     33.40s CPU     33.52s WALL (    2857 calls)
     vloc_psi     :    159.17s CPU    161.86s WALL (    2857 calls)
     add_vuspsi   :     29.53s CPU     29.58s WALL (    2857 calls)

     General routines
     calbec       :     46.84s CPU     47.02s WALL (    3457 calls)
     fft          :      1.22s CPU      1.24s WALL (      89 calls)
     ffts         :      0.05s CPU      0.05s WALL (      30 calls)
     fftw         :    172.86s CPU    175.80s WALL (  207878 calls)
     interpolate  :      0.26s CPU      0.26s WALL (      15 calls)

     Parallel routines
     fft_scatt_xy :     19.41s CPU     19.72s WALL (  207997 calls)
     fft_scatt_yz :     13.28s CPU     13.56s WALL (  207997 calls)

     PAW routines
     PAW_pot      :      0.88s CPU      0.88s WALL (      15 calls)
     PAW_symme    :      0.00s CPU      0.00s WALL (      30 calls)

     PWSCF        :   9m 1.78s CPU   9m10.45s WALL


   This run was terminated on:  17:49:53  14Jun2021            

=------------------------------------------------------------------------------=
   JOB DONE.
=------------------------------------------------------------------------------=
