
     Program PWSCF v.6.6 starts on 14Jun2021 at 16:35:10 

     This program is part of the open-source Quantum ESPRESSO suite
     for quantum simulation of materials; please cite
         "P. Giannozzi et al., J. Phys.:Condens. Matter 21 395502 (2009);
         "P. Giannozzi et al., J. Phys.:Condens. Matter 29 465901 (2017);
          URL http://www.quantum-espresso.org", 
     in publications or presentations arising from this work. More details at
     http://www.quantum-espresso.org/quote

     Parallel version (MPI), running on     2 processors

     MPI processes distributed on     1 nodes
     R & G space division:  proc/nbgrp/npool/nimage =       2
     Fft bands division:     nmany     =       1
     Waiting for input...
     Reading input from standard input

     Current dimensions of program PWSCF are:
     Max number of different atomic species (ntypx) = 10
     Max number of k-points (npk) =  40000
     Max angular momentum in pseudopotentials (lmaxx) =  3
     file Nb.pz-spn-kjpaw_psl.1.0.0.UPF: wavefunction(s)  4S 4P 4D renormalized
     file S.pz-n-kjpaw_psl.0.1.UPF: wavefunction(s)  3P renormalized

     Subspace diagonalization in iterative solution of the eigenvalue problem:
     a serial algorithm will be used


     Parallelization info
     --------------------
     sticks:   dense  smooth     PW     G-vecs:    dense   smooth      PW
     Min         534     210     60                85019    21488    3482
     Max         535     211     61                85022    21517    3501
     Sum        1069     421    121               170041    43005    6983



     bravais-lattice index     =            4
     lattice parameter (alat)  =       6.2006  a.u.
     unit-cell volume          =    1258.4114 (a.u.)^3
     number of atoms/cell      =            6
     number of atomic types    =            2
     number of electrons       =        50.00
     number of Kohn-Sham states=           60
     kinetic-energy cutoff     =      40.0000  Ry
     charge density cutoff     =     400.0000  Ry
     convergence threshold     =      1.0E-08
     mixing beta               =       0.7000
     number of iterations used =            8  plain     mixing
     Exchange-correlation= SLA PZ NOGX NOGC
                           (   1   1   0   0   0   0   0)

     celldm(1)=   6.200569  celldm(2)=   0.000000  celldm(3)=   6.095331
     celldm(4)=   0.000000  celldm(5)=   0.000000  celldm(6)=   0.000000

     crystal axes: (cart. coord. in units of alat)
               a(1) = (   1.000000   0.000000   0.000000 )  
               a(2) = (  -0.500000   0.866025   0.000000 )  
               a(3) = (   0.000000   0.000000   6.095331 )  

     reciprocal axes: (cart. coord. in units 2 pi/alat)
               b(1) = (  1.000000  0.577350 -0.000000 )  
               b(2) = (  0.000000  1.154701  0.000000 )  
               b(3) = (  0.000000 -0.000000  0.164060 )  


     PseudoPot. # 1 for Nb read from file:
     ../Nb.pz-spn-kjpaw_psl.1.0.0.UPF
     MD5 check sum: 38c2e04b3cc915696ca8dc9f46a23270
     Pseudo is Projector augmented-wave + core cor, Zval = 13.0
     Generated using "atomic" code by A. Dal Corso v.6.2.2
     Shape of augmentation charge: PSQ
     Using radial grid of 1227 points,  6 beta functions with: 
                l(1) =   0
                l(2) =   0
                l(3) =   1
                l(4) =   1
                l(5) =   2
                l(6) =   2
     Q(r) pseudized with 0 coefficients 


     PseudoPot. # 2 for S  read from file:
     ../S.pz-n-kjpaw_psl.0.1.UPF
     MD5 check sum: c0b1682311cf098e03f7841691d9a679
     Pseudo is Projector augmented-wave + core cor, Zval =  6.0
     Generated using "atomic" code by A. Dal Corso v.5.0.2 svn rev. 9415
     Shape of augmentation charge: PSQ
     Using radial grid of 1151 points,  4 beta functions with: 
                l(1) =   0
                l(2) =   0
                l(3) =   1
                l(4) =   1
     Q(r) pseudized with 0 coefficients 


     atomic species   valence    mass     pseudopotential
        Nb            13.00    92.90600     Nb( 1.00)
        S              6.00    32.06500     S ( 1.00)

      6 Sym. Ops. (no inversion) found


                                    s                        frac. trans.

      isym =  1     identity                                     

 cryst.   s( 1) = (     1          0          0      )
                  (     0          1          0      )
                  (     0          0          1      )

 cart.    s( 1) = (  1.0000000  0.0000000  0.0000000 )
                  (  0.0000000  1.0000000  0.0000000 )
                  (  0.0000000  0.0000000  1.0000000 )


      isym =  2     120 deg rotation - cryst. axis [0,0,1]       

 cryst.   s( 2) = (     0          1          0      )
                  (    -1         -1          0      )
                  (     0          0          1      )

 cart.    s( 2) = ( -0.5000000 -0.8660254  0.0000000 )
                  (  0.8660254 -0.5000000  0.0000000 )
                  (  0.0000000  0.0000000  1.0000000 )


      isym =  3     120 deg rotation - cryst. axis [0,0,-1]      

 cryst.   s( 3) = (    -1         -1          0      )
                  (     1          0          0      )
                  (     0          0          1      )

 cart.    s( 3) = ( -0.5000000  0.8660254  0.0000000 )
                  ( -0.8660254 -0.5000000  0.0000000 )
                  (  0.0000000  0.0000000  1.0000000 )


      isym =  4     inv. 180 deg rotation - cart. axis [1,0,0]   

 cryst.   s( 4) = (    -1          0          0      )
                  (     1          1          0      )
                  (     0          0          1      )

 cart.    s( 4) = ( -1.0000000  0.0000000  0.0000000 )
                  (  0.0000000  1.0000000  0.0000000 )
                  (  0.0000000  0.0000000  1.0000000 )


      isym =  5     inv. 180 deg rotation - cryst. axis [0,1,0]  

 cryst.   s( 5) = (     1          1          0      )
                  (     0         -1          0      )
                  (     0          0          1      )

 cart.    s( 5) = (  0.5000000  0.8660254  0.0000000 )
                  (  0.8660254 -0.5000000  0.0000000 )
                  (  0.0000000  0.0000000  1.0000000 )


      isym =  6     inv. 180 deg rotation - cryst. axis [1,1,0]  

 cryst.   s( 6) = (     0         -1          0      )
                  (    -1          0          0      )
                  (     0          0          1      )

 cart.    s( 6) = (  0.5000000 -0.8660254  0.0000000 )
                  ( -0.8660254 -0.5000000  0.0000000 )
                  (  0.0000000  0.0000000  1.0000000 )


     point group C_3v (3m)  
     there are  3 classes
     the character table:

       E     2C3   3s_v 
A_1    1.00  1.00  1.00
A_2    1.00  1.00 -1.00
E      2.00 -1.00  0.00

     the symmetry operations in each class and the name of the first element:

     E        1
          identity                                               
     2C3      2    3
          120 deg rotation - cryst. axis [0,0,1]                 
     3s_v     4    5    6
          inv. 180 deg rotation - cart. axis [1,0,0]             

   Cartesian axes

     site n.     atom                  positions (alat units)
         1           S   tau(   1) = (   0.0000000   0.5773503   1.4932768  )
         2           Nb  tau(   2) = (   0.0000000   0.0000000   1.0094618  )
         3           S   tau(   3) = (   0.0000000   0.5773503   0.5321904  )
         4           S   tau(   4) = (   0.5000000   0.2886751   2.5511139  )
         5           Nb  tau(   5) = (   0.0000000   0.0000000   3.0283905  )
         6           S   tau(   6) = (   0.5000000   0.2886751   3.5056620  )

   Crystallographic axes

     site n.     atom                  positions (cryst. coord.)
         1           S   tau(   1) = (  0.3333333  0.6666667  0.2449870  )
         2           Nb  tau(   2) = (  0.0000000  0.0000000  0.1656123  )
         3           S   tau(   3) = (  0.3333333  0.6666667  0.0873112  )
         4           S   tau(   4) = (  0.6666667  0.3333333  0.4185358  )
         5           Nb  tau(   5) = (  0.0000000  0.0000000  0.4968378  )
         6           S   tau(   6) = (  0.6666667  0.3333333  0.5751389  )

     number of k points=     4  Methfessel-Paxton smearing, width (Ry)=  0.0200
                       cart. coord. in units 2pi/alat
        k(    1) = (   0.0000000   0.0000000   0.0000000), wk =   0.1250000
        k(    2) = (   0.0000000   0.2886751   0.0000000), wk =   0.7500000
        k(    3) = (   0.0000000  -0.5773503   0.0000000), wk =   0.3750000
        k(    4) = (   0.2500000   0.4330127   0.0000000), wk =   0.7500000

                       cryst. coord.
        k(    1) = (   0.0000000   0.0000000   0.0000000), wk =   0.1250000
        k(    2) = (   0.0000000   0.2500000   0.0000000), wk =   0.7500000
        k(    3) = (   0.0000000  -0.5000000   0.0000000), wk =   0.3750000
        k(    4) = (   0.2500000   0.2500000   0.0000000), wk =   0.7500000

     Dense  grid:   170041 G-vectors     FFT dimensions: (  40,  40, 243)

     Smooth grid:    43005 G-vectors     FFT dimensions: (  25,  25, 160)

     Dynamical RAM for                 wfc:       2.46 MB

     Dynamical RAM for     wfc (w. buffer):      12.30 MB

     Dynamical RAM for           str. fact:       2.59 MB

     Dynamical RAM for           local pot:       0.00 MB

     Dynamical RAM for          nlocal pot:       2.79 MB

     Dynamical RAM for                qrad:       3.21 MB

     Dynamical RAM for          rho,v,vnew:       8.36 MB

     Dynamical RAM for               rhoin:       2.79 MB

     Dynamical RAM for            rho*nmix:      20.76 MB

     Dynamical RAM for           G-vectors:       5.03 MB

     Dynamical RAM for          h,s,v(r/c):       0.66 MB

     Dynamical RAM for          <psi|beta>:       0.06 MB

     Dynamical RAM for                 psi:       4.92 MB

     Dynamical RAM for                hpsi:       4.92 MB

     Dynamical RAM for                spsi:       4.92 MB

     Dynamical RAM for      wfcinit/wfcrot:       5.00 MB

     Dynamical RAM for           addusdens:     246.48 MB

     Estimated static dynamical RAM per process >      69.17 MB

     Estimated max dynamical RAM per process >     315.65 MB

     Estimated total dynamical RAM >     631.31 MB

     Initial potential from superposition of free atoms

     starting charge   49.99775, renormalised to   50.00000

     negative rho (up, down):  7.872E-05 0.000E+00
     Starting wfcs are   42 randomized atomic wfcs +   18 random wfcs
     Checking if some PAW data can be deallocated... 

     total cpu time spent up to now is        3.5 secs

     Self-consistent Calculation

     iteration #  1     ecut=    40.00 Ry     beta= 0.70
     Davidson diagonalization with overlap
     ethr =  1.00E-02,  avg # of iterations =  6.8

     Threshold (ethr) on eigenvalues was too large:
     Diagonalizing with lowered threshold

     Davidson diagonalization with overlap
     ethr =  5.46E-04,  avg # of iterations =  7.0

     negative rho (up, down):  1.252E-04 0.000E+00

     total cpu time spent up to now is       15.4 secs

     total energy              =    -907.79469751 Ry
     estimated scf accuracy    <       0.27439329 Ry

     iteration #  2     ecut=    40.00 Ry     beta= 0.70
     Davidson diagonalization with overlap
     ethr =  5.49E-04,  avg # of iterations =  6.8

     negative rho (up, down):  1.431E-04 0.000E+00

     total cpu time spent up to now is       20.9 secs

     total energy              =    -907.51410574 Ry
     estimated scf accuracy    <       3.37978069 Ry

     iteration #  3     ecut=    40.00 Ry     beta= 0.70
     Davidson diagonalization with overlap
     ethr =  5.49E-04,  avg # of iterations =  7.0

     negative rho (up, down):  1.234E-04 0.000E+00

     total cpu time spent up to now is       26.3 secs

     total energy              =    -907.17642700 Ry
     estimated scf accuracy    <      21.25593322 Ry

     iteration #  4     ecut=    40.00 Ry     beta= 0.70
     Davidson diagonalization with overlap
     ethr =  5.49E-04,  avg # of iterations =  6.5

     negative rho (up, down):  1.226E-04 0.000E+00

     total cpu time spent up to now is       31.4 secs

     total energy              =    -907.87756487 Ry
     estimated scf accuracy    <       1.61667445 Ry

     iteration #  5     ecut=    40.00 Ry     beta= 0.70
     Davidson diagonalization with overlap
     ethr =  5.49E-04,  avg # of iterations =  1.5

     negative rho (up, down):  1.235E-04 0.000E+00

     total cpu time spent up to now is       35.5 secs

     total energy              =    -907.89375964 Ry
     estimated scf accuracy    <       0.11697057 Ry

     iteration #  6     ecut=    40.00 Ry     beta= 0.70
     Davidson diagonalization with overlap
     ethr =  2.34E-04,  avg # of iterations =  2.2

     negative rho (up, down):  1.246E-04 0.000E+00

     total cpu time spent up to now is       39.8 secs

     total energy              =    -907.89763095 Ry
     estimated scf accuracy    <       0.05504609 Ry

     iteration #  7     ecut=    40.00 Ry     beta= 0.70
     Davidson diagonalization with overlap
     ethr =  1.10E-04,  avg # of iterations =  3.2

     negative rho (up, down):  1.271E-04 0.000E+00

     total cpu time spent up to now is       44.1 secs

     total energy              =    -907.89763336 Ry
     estimated scf accuracy    <       0.03265280 Ry

     iteration #  8     ecut=    40.00 Ry     beta= 0.70
     Davidson diagonalization with overlap
     ethr =  6.53E-05,  avg # of iterations =  3.8

     negative rho (up, down):  1.284E-04 0.000E+00

     total cpu time spent up to now is       48.4 secs

     total energy              =    -907.89822358 Ry
     estimated scf accuracy    <       0.22567270 Ry

     iteration #  9     ecut=    40.00 Ry     beta= 0.70
     Davidson diagonalization with overlap
     ethr =  6.53E-05,  avg # of iterations =  1.0

     negative rho (up, down):  1.309E-04 0.000E+00

     total cpu time spent up to now is       52.4 secs

     total energy              =    -907.90084398 Ry
     estimated scf accuracy    <       0.02889857 Ry

     iteration # 10     ecut=    40.00 Ry     beta= 0.70
     Davidson diagonalization with overlap
     ethr =  5.78E-05,  avg # of iterations =  1.0

     negative rho (up, down):  1.306E-04 0.000E+00

     total cpu time spent up to now is       56.2 secs

     total energy              =    -907.89957188 Ry
     estimated scf accuracy    <       0.06749058 Ry

     iteration # 11     ecut=    40.00 Ry     beta= 0.70
     Davidson diagonalization with overlap
     ethr =  5.78E-05,  avg # of iterations =  1.0

     negative rho (up, down):  1.313E-04 0.000E+00

     total cpu time spent up to now is       60.2 secs

     total energy              =    -907.90032835 Ry
     estimated scf accuracy    <       0.04642929 Ry

     iteration # 12     ecut=    40.00 Ry     beta= 0.70
     Davidson diagonalization with overlap
     ethr =  5.78E-05,  avg # of iterations =  1.0

     negative rho (up, down):  1.313E-04 0.000E+00

     total cpu time spent up to now is       64.1 secs

     total energy              =    -907.90065075 Ry
     estimated scf accuracy    <       0.00026681 Ry

     iteration # 13     ecut=    40.00 Ry     beta= 0.70
     Davidson diagonalization with overlap
     ethr =  5.34E-07,  avg # of iterations =  8.5

     negative rho (up, down):  1.314E-04 0.000E+00

     total cpu time spent up to now is       68.8 secs

     total energy              =    -907.90065261 Ry
     estimated scf accuracy    <       0.00000032 Ry

     iteration # 14     ecut=    40.00 Ry     beta= 0.70
     Davidson diagonalization with overlap
     ethr =  6.36E-10,  avg # of iterations =  1.5

     negative rho (up, down):  1.314E-04 0.000E+00

     total cpu time spent up to now is       73.0 secs

     End of self-consistent calculation

          k = 0.0000 0.0000 0.0000 (  5429 PWs)   bands (ev):

   -51.4515 -51.4406 -27.6523 -27.6516 -27.4427 -27.4427 -27.4345 -27.4345
   -10.3646 -10.2972  -9.0683  -8.9694  -2.1272  -1.8222   0.9521   0.9521
     1.0053   1.0053   1.3870   2.0661   2.0661   2.1104   2.1104   2.1236
     3.8435   4.2753   6.3171   6.3171   6.3601   6.3601   6.4943   6.4943
     6.5233   6.5233   8.5432   8.7102   9.0096   9.6180  11.3521  11.5651
    11.6174  11.9753  13.8449  13.8449  13.8712  13.8712  14.0304  15.7601
    15.7925  15.7925  16.0407  16.0407  16.1234  17.1092  18.0446  18.5129
    18.6599  18.6599  18.7880  19.1701

     occupation numbers 
     1.0000   1.0000   1.0000   1.0000   1.0000   1.0000   1.0000   1.0000
     1.0000   1.0000   1.0000   1.0000   1.0000   1.0000   1.0000   1.0000
     1.0000   1.0000   1.0000   1.0000   1.0000   1.0000   1.0000   1.0000
    -0.0018  -0.0000  -0.0000  -0.0000  -0.0000  -0.0000  -0.0000  -0.0000
    -0.0000  -0.0000  -0.0000  -0.0000  -0.0000  -0.0000  -0.0000  -0.0000
    -0.0000  -0.0000  -0.0000  -0.0000  -0.0000  -0.0000  -0.0000  -0.0000
    -0.0000  -0.0000  -0.0000  -0.0000  -0.0000  -0.0000  -0.0000  -0.0000
    -0.0000  -0.0000  -0.0000  -0.0000

          k = 0.0000 0.2887 0.0000 (  5369 PWs)   bands (ev):

   -51.4289 -51.4179 -27.6709 -27.6645 -27.6034 -27.6021 -27.4937 -27.4857
    -9.6078  -9.5472  -8.8196  -8.7481  -1.4746  -1.2407  -0.3340  -0.2909
    -0.0025   0.1866   1.1038   1.1476   1.6740   1.7262   1.9579   2.3180
     3.1131   3.1991   5.8344   6.0837   6.1361   6.2265   6.5797   6.8156
     7.4591   7.5223   9.8960  10.3669  10.8644  11.5555  11.8411  12.3049
    12.4032  12.5042  12.9487  13.1221  14.2710  14.8078  14.9611  15.2086
    15.5335  15.6893  15.8564  16.1271  16.5268  16.5664  16.6850  17.1171
    17.3779  17.6366  17.9728  19.0853

     occupation numbers 
     1.0000   1.0000   1.0000   1.0000   1.0000   1.0000   1.0000   1.0000
     1.0000   1.0000   1.0000   1.0000   1.0000   1.0000   1.0000   1.0000
     1.0000   1.0000   1.0000   1.0000   1.0000   1.0000   1.0000   1.0000
     0.7353   0.4793  -0.0000  -0.0000  -0.0000  -0.0000  -0.0000  -0.0000
    -0.0000  -0.0000  -0.0000  -0.0000  -0.0000  -0.0000  -0.0000  -0.0000
    -0.0000  -0.0000  -0.0000  -0.0000  -0.0000  -0.0000  -0.0000  -0.0000
    -0.0000  -0.0000  -0.0000  -0.0000  -0.0000  -0.0000  -0.0000  -0.0000
    -0.0000  -0.0000  -0.0000  -0.0000

          k = 0.0000-0.5774 0.0000 (  5356 PWs)   bands (ev):

   -51.4062 -51.3951 -27.8903 -27.8857 -27.5541 -27.5522 -27.5440 -27.5364
    -8.6888  -8.6522  -8.5243  -8.4939  -2.0857  -2.0435  -1.1242  -0.9990
    -0.4302  -0.4013   0.4425   0.4896   1.5423   1.8847   2.2989   2.3525
     3.0244   3.1349   6.3742   6.3852   6.7960   6.8167   7.2737   7.5826
     8.0651   8.1870   9.2704   9.8004  11.0338  11.0726  11.4770  11.5662
    12.5122  12.5702  13.1727  13.3932  13.9277  13.9280  14.0486  14.3061
    15.0090  15.0533  16.4063  16.8470  17.6607  17.7165  17.8845  18.6490
    18.8179  19.0707  19.7193  20.0956

     occupation numbers 
     1.0000   1.0000   1.0000   1.0000   1.0000   1.0000   1.0000   1.0000
     1.0000   1.0000   1.0000   1.0000   1.0000   1.0000   1.0000   1.0000
     1.0000   1.0000   1.0000   1.0000   1.0000   1.0000   1.0000   1.0001
     0.9277   0.6745  -0.0000  -0.0000  -0.0000  -0.0000  -0.0000  -0.0000
    -0.0000  -0.0000  -0.0000  -0.0000  -0.0000  -0.0000  -0.0000  -0.0000
    -0.0000  -0.0000  -0.0000  -0.0000  -0.0000  -0.0000  -0.0000  -0.0000
    -0.0000  -0.0000  -0.0000  -0.0000  -0.0000  -0.0000  -0.0000  -0.0000
    -0.0000  -0.0000  -0.0000  -0.0000

          k = 0.2500 0.4330 0.0000 (  5370 PWs)   bands (ev):

   -51.4062 -51.3951 -27.8088 -27.8036 -27.6297 -27.6226 -27.5542 -27.5523
    -8.7065  -8.6656  -8.5041  -8.4703  -1.4650  -1.3846  -1.2432  -1.2080
    -0.1540  -0.0589   0.3605   0.5164   0.6675   0.6874   1.8398   1.9672
     3.2389   3.2612   5.9686   6.1735   6.7986   6.9023   7.0047   7.1220
     8.3432   8.3867  10.6756  10.8431  11.5417  11.5932  11.7521  12.6197
    12.8440  12.9151  13.0667  13.9554  14.3244  14.4335  14.7273  15.2406
    15.2635  15.3474  15.3971  15.6293  16.1099  16.7052  16.7103  17.3270
    17.4521  17.8627  18.0589  18.8104

     occupation numbers 
     1.0000   1.0000   1.0000   1.0000   1.0000   1.0000   1.0000   1.0000
     1.0000   1.0000   1.0000   1.0000   1.0000   1.0000   1.0000   1.0000
     1.0000   1.0000   1.0000   1.0000   1.0000   1.0000   1.0000   1.0000
     0.3578   0.2935  -0.0000  -0.0000  -0.0000  -0.0000  -0.0000  -0.0000
    -0.0000  -0.0000  -0.0000  -0.0000  -0.0000  -0.0000  -0.0000  -0.0000
    -0.0000  -0.0000  -0.0000  -0.0000  -0.0000  -0.0000  -0.0000  -0.0000
    -0.0000  -0.0000  -0.0000  -0.0000  -0.0000  -0.0000  -0.0000  -0.0000
    -0.0000  -0.0000  -0.0000  -0.0000

     the Fermi energy is     3.1924 ev

!    total energy              =    -907.90065262 Ry

     total all-electron energy =    -18448.309675 Ry
     estimated scf accuracy    <          4.0E-09 Ry
     smearing contrib. (-TS)   =      -0.00846951 Ry
     internal energy E=F+TS    =    -907.89218311 Ry

     The total energy is F=E-TS. E is the sum of the following terms:
     one-electron contribution =   -1048.02746165 Ry
     hartree contribution      =     537.53943309 Ry
     xc contribution           =     -65.32914370 Ry
     ewald contribution        =     256.18108273 Ry
     one-center paw contrib.   =    -588.25609358 Ry
      -> PAW hartree energy AE =     100.92694246 Ry
      -> PAW hartree energy PS =    -100.41263612 Ry
      -> PAW xc energy AE      =    -324.80492401 Ry
      -> PAW xc energy PS      =      30.16339419 Ry
      -> total E_H with PAW    =     538.05373943 Ry
      -> total E_XC with PAW   =    -359.97067351 Ry

     convergence has been achieved in  14 iterations

     Writing output data file ./tmp/NbS2_bi.save/

     init_run     :      2.40s CPU      2.54s WALL (       1 calls)
     electrons    :     65.81s CPU     69.51s WALL (       1 calls)

     Called by init_run:
     wfcinit      :      1.00s CPU      1.01s WALL (       1 calls)
     wfcinit:atom :      0.01s CPU      0.01s WALL (       4 calls)
     wfcinit:wfcr :      0.97s CPU      0.99s WALL (       4 calls)
     potinit      :      0.32s CPU      0.33s WALL (       1 calls)
     hinit0       :      0.61s CPU      0.61s WALL (       1 calls)

     Called by electrons:
     c_bands      :     44.31s CPU     44.66s WALL (      15 calls)
     sum_band     :     14.00s CPU     15.76s WALL (      15 calls)
     v_of_rho     :      0.48s CPU      0.51s WALL (      15 calls)
     v_h          :      0.26s CPU      0.27s WALL (      15 calls)
     v_xc         :      0.22s CPU      0.24s WALL (      15 calls)
     newd         :      5.81s CPU      7.41s WALL (      15 calls)
     PAW_pot      :      0.87s CPU      0.88s WALL (      15 calls)
     mix_rho      :      0.52s CPU      0.54s WALL (      15 calls)

     Called by c_bands:
     init_us_2    :      0.18s CPU      0.19s WALL (     124 calls)
     cegterg      :     43.77s CPU     44.10s WALL (      60 calls)

     Called by sum_band:
     sum_band:wei :      0.00s CPU      0.01s WALL (      15 calls)
     sum_band:loo :      5.13s CPU      5.19s WALL (      15 calls)
     sum_band:buf :      0.08s CPU      0.08s WALL (      60 calls)
     sum_band:ini :      0.09s CPU      0.09s WALL (      60 calls)
     sum_band:cal :      1.30s CPU      1.30s WALL (      60 calls)
     sum_band:bec :      0.01s CPU      0.01s WALL (      60 calls)
     addusdens    :      8.52s CPU     10.19s WALL (      15 calls)
     addusd:skk   :      0.04s CPU      0.05s WALL (      30 calls)
     addusd:dgemm :      3.37s CPU      4.78s WALL (      30 calls)
     addusd:qvan2 :      4.64s CPU      4.64s WALL (      30 calls)

     Called by *egterg:
     cdiaghg      :      1.57s CPU      1.58s WALL (     291 calls)
     cegterg:over :      5.30s CPU      5.31s WALL (     235 calls)
     cegterg:upda :      2.82s CPU      2.82s WALL (     235 calls)
     cegterg:last :      7.58s CPU      7.58s WALL (     104 calls)
     h_psi        :     21.84s CPU     22.12s WALL (     299 calls)
     s_psi        :      2.75s CPU      2.78s WALL (     299 calls)
     g_psi        :      0.06s CPU      0.06s WALL (     235 calls)

     Called by h_psi:
     h_psi:calbec :      3.20s CPU      3.21s WALL (     299 calls)
     vloc_psi     :     15.83s CPU     16.08s WALL (     299 calls)
     add_vuspsi   :      2.64s CPU      2.65s WALL (     299 calls)

     General routines
     calbec       :      4.50s CPU      4.51s WALL (     359 calls)
     fft          :      1.18s CPU      1.24s WALL (      89 calls)
     ffts         :      0.05s CPU      0.05s WALL (      30 calls)
     fftw         :     17.23s CPU     17.51s WALL (   20618 calls)
     interpolate  :      0.25s CPU      0.26s WALL (      15 calls)

     Parallel routines
     fft_scatt_xy :      2.05s CPU      2.08s WALL (   20737 calls)
     fft_scatt_yz :      1.58s CPU      1.66s WALL (   20737 calls)

     PAW routines
     PAW_pot      :      0.87s CPU      0.88s WALL (      15 calls)
     PAW_symme    :      0.00s CPU      0.00s WALL (      30 calls)

     PWSCF        :   1m 9.25s CPU   1m13.26s WALL


   This run was terminated on:  16:36:23  14Jun2021            

=------------------------------------------------------------------------------=
   JOB DONE.
=------------------------------------------------------------------------------=
