
     Program PWSCF v.6.6 starts on 14Jun2021 at 17: 4:29 

     This program is part of the open-source Quantum ESPRESSO suite
     for quantum simulation of materials; please cite
         "P. Giannozzi et al., J. Phys.:Condens. Matter 21 395502 (2009);
         "P. Giannozzi et al., J. Phys.:Condens. Matter 29 465901 (2017);
          URL http://www.quantum-espresso.org", 
     in publications or presentations arising from this work. More details at
     http://www.quantum-espresso.org/quote

     Parallel version (MPI), running on     2 processors

     MPI processes distributed on     1 nodes
     R & G space division:  proc/nbgrp/npool/nimage =       2
     Fft bands division:     nmany     =       1
     Waiting for input...
     Reading input from standard input

     Current dimensions of program PWSCF are:
     Max number of different atomic species (ntypx) = 10
     Max number of k-points (npk) =  40000
     Max angular momentum in pseudopotentials (lmaxx) =  3
     file Nb.pz-spn-kjpaw_psl.1.0.0.UPF: wavefunction(s)  4S 4P 4D renormalized
     file S.pz-n-kjpaw_psl.0.1.UPF: wavefunction(s)  3P renormalized

     Subspace diagonalization in iterative solution of the eigenvalue problem:
     a serial algorithm will be used


     Parallelization info
     --------------------
     sticks:   dense  smooth     PW     G-vecs:    dense   smooth      PW
     Min         534     210     60                85019    21488    3564
     Max         535     211     61                85022    21517    3587
     Sum        1069     421    121               170041    43005    7151



     bravais-lattice index     =            4
     lattice parameter (alat)  =       6.2006  a.u.
     unit-cell volume          =    1258.4114 (a.u.)^3
     number of atoms/cell      =            6
     number of atomic types    =            2
     number of electrons       =        50.00
     number of Kohn-Sham states=           60
     kinetic-energy cutoff     =      40.0000  Ry
     charge density cutoff     =     400.0000  Ry
     convergence threshold     =      1.0E-08
     mixing beta               =       0.7000
     number of iterations used =            8  plain     mixing
     Exchange-correlation= SLA PZ NOGX NOGC
                           (   1   1   0   0   0   0   0)

     celldm(1)=   6.200569  celldm(2)=   0.000000  celldm(3)=   6.095331
     celldm(4)=   0.000000  celldm(5)=   0.000000  celldm(6)=   0.000000

     crystal axes: (cart. coord. in units of alat)
               a(1) = (   1.000000   0.000000   0.000000 )  
               a(2) = (  -0.500000   0.866025   0.000000 )  
               a(3) = (   0.000000   0.000000   6.095331 )  

     reciprocal axes: (cart. coord. in units 2 pi/alat)
               b(1) = (  1.000000  0.577350 -0.000000 )  
               b(2) = (  0.000000  1.154701  0.000000 )  
               b(3) = (  0.000000 -0.000000  0.164060 )  


     PseudoPot. # 1 for Nb read from file:
     ../Nb.pz-spn-kjpaw_psl.1.0.0.UPF
     MD5 check sum: 38c2e04b3cc915696ca8dc9f46a23270
     Pseudo is Projector augmented-wave + core cor, Zval = 13.0
     Generated using "atomic" code by A. Dal Corso v.6.2.2
     Shape of augmentation charge: PSQ
     Using radial grid of 1227 points,  6 beta functions with: 
                l(1) =   0
                l(2) =   0
                l(3) =   1
                l(4) =   1
                l(5) =   2
                l(6) =   2
     Q(r) pseudized with 0 coefficients 


     PseudoPot. # 2 for S  read from file:
     ../S.pz-n-kjpaw_psl.0.1.UPF
     MD5 check sum: c0b1682311cf098e03f7841691d9a679
     Pseudo is Projector augmented-wave + core cor, Zval =  6.0
     Generated using "atomic" code by A. Dal Corso v.5.0.2 svn rev. 9415
     Shape of augmentation charge: PSQ
     Using radial grid of 1151 points,  4 beta functions with: 
                l(1) =   0
                l(2) =   0
                l(3) =   1
                l(4) =   1
     Q(r) pseudized with 0 coefficients 


     atomic species   valence    mass     pseudopotential
        Nb            13.00    92.90600     Nb( 1.00)
        S              6.00    32.06500     S ( 1.00)

      6 Sym. Ops. (no inversion) found


                                    s                        frac. trans.

      isym =  1     identity                                     

 cryst.   s( 1) = (     1          0          0      )
                  (     0          1          0      )
                  (     0          0          1      )

 cart.    s( 1) = (  1.0000000  0.0000000  0.0000000 )
                  (  0.0000000  1.0000000  0.0000000 )
                  (  0.0000000  0.0000000  1.0000000 )


      isym =  2     120 deg rotation - cryst. axis [0,0,1]       

 cryst.   s( 2) = (     0          1          0      )
                  (    -1         -1          0      )
                  (     0          0          1      )

 cart.    s( 2) = ( -0.5000000 -0.8660254  0.0000000 )
                  (  0.8660254 -0.5000000  0.0000000 )
                  (  0.0000000  0.0000000  1.0000000 )


      isym =  3     120 deg rotation - cryst. axis [0,0,-1]      

 cryst.   s( 3) = (    -1         -1          0      )
                  (     1          0          0      )
                  (     0          0          1      )

 cart.    s( 3) = ( -0.5000000  0.8660254  0.0000000 )
                  ( -0.8660254 -0.5000000  0.0000000 )
                  (  0.0000000  0.0000000  1.0000000 )


      isym =  4     inv. 180 deg rotation - cart. axis [1,0,0]   

 cryst.   s( 4) = (    -1          0          0      )
                  (     1          1          0      )
                  (     0          0          1      )

 cart.    s( 4) = ( -1.0000000  0.0000000  0.0000000 )
                  (  0.0000000  1.0000000  0.0000000 )
                  (  0.0000000  0.0000000  1.0000000 )


      isym =  5     inv. 180 deg rotation - cryst. axis [0,1,0]  

 cryst.   s( 5) = (     1          1          0      )
                  (     0         -1          0      )
                  (     0          0          1      )

 cart.    s( 5) = (  0.5000000  0.8660254  0.0000000 )
                  (  0.8660254 -0.5000000  0.0000000 )
                  (  0.0000000  0.0000000  1.0000000 )


      isym =  6     inv. 180 deg rotation - cryst. axis [1,1,0]  

 cryst.   s( 6) = (     0         -1          0      )
                  (    -1          0          0      )
                  (     0          0          1      )

 cart.    s( 6) = (  0.5000000 -0.8660254  0.0000000 )
                  ( -0.8660254 -0.5000000  0.0000000 )
                  (  0.0000000  0.0000000  1.0000000 )


     point group C_3v (3m)  
     there are  3 classes
     the character table:

       E     2C3   3s_v 
A_1    1.00  1.00  1.00
A_2    1.00  1.00 -1.00
E      2.00 -1.00  0.00

     the symmetry operations in each class and the name of the first element:

     E        1
          identity                                               
     2C3      2    3
          120 deg rotation - cryst. axis [0,0,1]                 
     3s_v     4    5    6
          inv. 180 deg rotation - cart. axis [1,0,0]             

   Cartesian axes

     site n.     atom                  positions (alat units)
         1           S   tau(   1) = (   0.0000000   0.5773503   1.4932768  )
         2           Nb  tau(   2) = (   0.0000000   0.0000000   1.0094618  )
         3           S   tau(   3) = (   0.0000000   0.5773503   0.5321904  )
         4           S   tau(   4) = (   0.5000000   0.2886751   2.5511139  )
         5           Nb  tau(   5) = (   0.0000000   0.0000000   3.0283905  )
         6           S   tau(   6) = (   0.5000000   0.2886751   3.5056620  )

   Crystallographic axes

     site n.     atom                  positions (cryst. coord.)
         1           S   tau(   1) = (  0.3333333  0.6666667  0.2449870  )
         2           Nb  tau(   2) = (  0.0000000  0.0000000  0.1656123  )
         3           S   tau(   3) = (  0.3333333  0.6666667  0.0873112  )
         4           S   tau(   4) = (  0.6666667  0.3333333  0.4185358  )
         5           Nb  tau(   5) = (  0.0000000  0.0000000  0.4968378  )
         6           S   tau(   6) = (  0.6666667  0.3333333  0.5751389  )

     number of k points=    24  Methfessel-Paxton smearing, width (Ry)=  0.0200
                       cart. coord. in units 2pi/alat
        k(    1) = (   0.0000000   0.0000000   0.0000000), wk =   0.0102041
        k(    2) = (   0.0000000   0.0824786   0.0000000), wk =   0.0612245
        k(    3) = (   0.0000000   0.1649572   0.0000000), wk =   0.0612245
        k(    4) = (   0.0000000   0.2474358   0.0000000), wk =   0.0612245
        k(    5) = (   0.0000000   0.3299144   0.0000000), wk =   0.0612245
        k(    6) = (   0.0000000   0.4123930   0.0000000), wk =   0.0612245
        k(    7) = (   0.0000000   0.4948717   0.0000000), wk =   0.0612245
        k(    8) = (   0.0000000  -0.5773503   0.0000000), wk =   0.0306122
        k(    9) = (   0.0714286   0.1237179   0.0000000), wk =   0.0612245
        k(   10) = (   0.0714286   0.2061965   0.0000000), wk =   0.1224490
        k(   11) = (   0.0714286   0.2886751   0.0000000), wk =   0.1224490
        k(   12) = (   0.0714286   0.3711537   0.0000000), wk =   0.1224490
        k(   13) = (   0.0714286   0.4536324   0.0000000), wk =   0.1224490
        k(   14) = (   0.0714286   0.5361110   0.0000000), wk =   0.1224490
        k(   15) = (   0.1428571   0.2474358   0.0000000), wk =   0.0612245
        k(   16) = (   0.1428571   0.3299144   0.0000000), wk =   0.1224490
        k(   17) = (   0.1428571   0.4123930   0.0000000), wk =   0.1224490
        k(   18) = (   0.1428571   0.4948717   0.0000000), wk =   0.1224490
        k(   19) = (   0.1428571   0.5773503   0.0000000), wk =   0.0612245
        k(   20) = (   0.2142857   0.3711537   0.0000000), wk =   0.0612245
        k(   21) = (   0.2142857   0.4536324   0.0000000), wk =   0.1224490
        k(   22) = (   0.2142857   0.5361110   0.0000000), wk =   0.1224490
        k(   23) = (   0.2857143   0.4948717   0.0000000), wk =   0.0612245
        k(   24) = (   0.2857143   0.5773503   0.0000000), wk =   0.0612245

                       cryst. coord.
        k(    1) = (   0.0000000   0.0000000   0.0000000), wk =   0.0102041
        k(    2) = (   0.0000000   0.0714286   0.0000000), wk =   0.0612245
        k(    3) = (   0.0000000   0.1428571   0.0000000), wk =   0.0612245
        k(    4) = (   0.0000000   0.2142857   0.0000000), wk =   0.0612245
        k(    5) = (   0.0000000   0.2857143   0.0000000), wk =   0.0612245
        k(    6) = (   0.0000000   0.3571429   0.0000000), wk =   0.0612245
        k(    7) = (   0.0000000   0.4285714   0.0000000), wk =   0.0612245
        k(    8) = (   0.0000000  -0.5000000   0.0000000), wk =   0.0306122
        k(    9) = (   0.0714286   0.0714286   0.0000000), wk =   0.0612245
        k(   10) = (   0.0714286   0.1428571   0.0000000), wk =   0.1224490
        k(   11) = (   0.0714286   0.2142857   0.0000000), wk =   0.1224490
        k(   12) = (   0.0714286   0.2857143   0.0000000), wk =   0.1224490
        k(   13) = (   0.0714286   0.3571429   0.0000000), wk =   0.1224490
        k(   14) = (   0.0714286   0.4285714   0.0000000), wk =   0.1224490
        k(   15) = (   0.1428571   0.1428571   0.0000000), wk =   0.0612245
        k(   16) = (   0.1428571   0.2142857   0.0000000), wk =   0.1224490
        k(   17) = (   0.1428571   0.2857143   0.0000000), wk =   0.1224490
        k(   18) = (   0.1428571   0.3571429   0.0000000), wk =   0.1224490
        k(   19) = (   0.1428571   0.4285714   0.0000000), wk =   0.0612245
        k(   20) = (   0.2142857   0.2142857   0.0000000), wk =   0.0612245
        k(   21) = (   0.2142857   0.2857143   0.0000000), wk =   0.1224490
        k(   22) = (   0.2142857   0.3571429   0.0000000), wk =   0.1224490
        k(   23) = (   0.2857143   0.2857143   0.0000000), wk =   0.0612245
        k(   24) = (   0.2857143   0.3571429   0.0000000), wk =   0.0612245

     Dense  grid:   170041 G-vectors     FFT dimensions: (  40,  40, 243)

     Smooth grid:    43005 G-vectors     FFT dimensions: (  25,  25, 160)

     Dynamical RAM for                 wfc:       2.46 MB

     Dynamical RAM for     wfc (w. buffer):      61.52 MB

     Dynamical RAM for           str. fact:       2.59 MB

     Dynamical RAM for           local pot:       0.00 MB

     Dynamical RAM for          nlocal pot:       2.79 MB

     Dynamical RAM for                qrad:       3.21 MB

     Dynamical RAM for          rho,v,vnew:       8.36 MB

     Dynamical RAM for               rhoin:       2.79 MB

     Dynamical RAM for            rho*nmix:      20.76 MB

     Dynamical RAM for           G-vectors:       5.03 MB

     Dynamical RAM for          h,s,v(r/c):       0.66 MB

     Dynamical RAM for          <psi|beta>:       0.06 MB

     Dynamical RAM for                 psi:       4.92 MB

     Dynamical RAM for                hpsi:       4.92 MB

     Dynamical RAM for                spsi:       4.92 MB

     Dynamical RAM for      wfcinit/wfcrot:       5.00 MB

     Dynamical RAM for           addusdens:     246.48 MB

     Estimated static dynamical RAM per process >     118.39 MB

     Estimated max dynamical RAM per process >     364.87 MB

     Estimated total dynamical RAM >     729.74 MB

     Initial potential from superposition of free atoms

     starting charge   49.99775, renormalised to   50.00000

     negative rho (up, down):  7.872E-05 0.000E+00
     Starting wfcs are   42 randomized atomic wfcs +   18 random wfcs
     Checking if some PAW data can be deallocated... 

     total cpu time spent up to now is        8.5 secs

     Self-consistent Calculation

     iteration #  1     ecut=    40.00 Ry     beta= 0.70
     Davidson diagonalization with overlap
     ethr =  1.00E-02,  avg # of iterations =  7.8

     Threshold (ethr) on eigenvalues was too large:
     Diagonalizing with lowered threshold

     Davidson diagonalization with overlap
     ethr =  5.35E-04,  avg # of iterations =  2.5

     negative rho (up, down):  1.253E-04 0.000E+00

     total cpu time spent up to now is       68.4 secs

     total energy              =    -907.81149600 Ry
     estimated scf accuracy    <       0.26861699 Ry

     iteration #  2     ecut=    40.00 Ry     beta= 0.70
     Davidson diagonalization with overlap
     ethr =  5.37E-04,  avg # of iterations =  5.8

     negative rho (up, down):  1.426E-04 0.000E+00

     total cpu time spent up to now is       99.4 secs

     total energy              =    -907.49741921 Ry
     estimated scf accuracy    <       2.98830280 Ry

     iteration #  3     ecut=    40.00 Ry     beta= 0.70
     Davidson diagonalization with overlap
     ethr =  5.37E-04,  avg # of iterations =  7.6

     negative rho (up, down):  1.216E-04 0.000E+00

     total cpu time spent up to now is      127.8 secs

     total energy              =    -906.82298787 Ry
     estimated scf accuracy    <      40.16727125 Ry

     iteration #  4     ecut=    40.00 Ry     beta= 0.70
     Davidson diagonalization with overlap
     ethr =  5.37E-04,  avg # of iterations =  7.0

     negative rho (up, down):  1.217E-04 0.000E+00

     total cpu time spent up to now is      154.3 secs

     total energy              =    -907.89514788 Ry
     estimated scf accuracy    <       0.13877446 Ry

     iteration #  5     ecut=    40.00 Ry     beta= 0.70
     Davidson diagonalization with overlap
     ethr =  2.78E-04,  avg # of iterations =  2.0

     negative rho (up, down):  1.241E-04 0.000E+00

     total cpu time spent up to now is      177.7 secs

     total energy              =    -907.90732663 Ry
     estimated scf accuracy    <       0.11033249 Ry

     iteration #  6     ecut=    40.00 Ry     beta= 0.70
     Davidson diagonalization with overlap
     ethr =  2.21E-04,  avg # of iterations =  1.5

     negative rho (up, down):  1.257E-04 0.000E+00

     total cpu time spent up to now is      197.3 secs

     total energy              =    -907.90750328 Ry
     estimated scf accuracy    <       0.06166224 Ry

     iteration #  7     ecut=    40.00 Ry     beta= 0.70
     Davidson diagonalization with overlap
     ethr =  1.23E-04,  avg # of iterations =  1.8

     negative rho (up, down):  1.276E-04 0.000E+00

     total cpu time spent up to now is      216.5 secs

     total energy              =    -907.91062513 Ry
     estimated scf accuracy    <       0.01394643 Ry

     iteration #  8     ecut=    40.00 Ry     beta= 0.70
     Davidson diagonalization with overlap
     ethr =  2.79E-05,  avg # of iterations =  4.3

     negative rho (up, down):  1.293E-04 0.000E+00

     total cpu time spent up to now is      236.9 secs

     total energy              =    -907.91125027 Ry
     estimated scf accuracy    <       0.00151131 Ry

     iteration #  9     ecut=    40.00 Ry     beta= 0.70
     Davidson diagonalization with overlap
     ethr =  3.02E-06,  avg # of iterations =  8.5

     negative rho (up, down):  1.317E-04 0.000E+00

     total cpu time spent up to now is      262.2 secs

     total energy              =    -907.91126826 Ry
     estimated scf accuracy    <       0.00391096 Ry

     iteration # 10     ecut=    40.00 Ry     beta= 0.70
     Davidson diagonalization with overlap
     ethr =  3.02E-06,  avg # of iterations =  1.0

     negative rho (up, down):  1.317E-04 0.000E+00

     total cpu time spent up to now is      281.1 secs

     total energy              =    -907.91146196 Ry
     estimated scf accuracy    <       0.00190320 Ry

     iteration # 11     ecut=    40.00 Ry     beta= 0.70
     Davidson diagonalization with overlap
     ethr =  3.02E-06,  avg # of iterations =  1.0

     negative rho (up, down):  1.320E-04 0.000E+00

     total cpu time spent up to now is      300.5 secs

     total energy              =    -907.91149801 Ry
     estimated scf accuracy    <       0.00009150 Ry

     iteration # 12     ecut=    40.00 Ry     beta= 0.70
     Davidson diagonalization with overlap
     ethr =  1.83E-07,  avg # of iterations =  1.0

     negative rho (up, down):  1.321E-04 0.000E+00

     total cpu time spent up to now is      318.4 secs

     total energy              =    -907.91149941 Ry
     estimated scf accuracy    <       0.00000090 Ry

     iteration # 13     ecut=    40.00 Ry     beta= 0.70
     Davidson diagonalization with overlap
     ethr =  1.80E-09,  avg # of iterations =  1.0

     negative rho (up, down):  1.321E-04 0.000E+00

     total cpu time spent up to now is      337.3 secs

     total energy              =    -907.91149944 Ry
     estimated scf accuracy    <       0.00000002 Ry

     iteration # 14     ecut=    40.00 Ry     beta= 0.70
     Davidson diagonalization with overlap
     ethr =  3.88E-11,  avg # of iterations =  2.5

     negative rho (up, down):  1.321E-04 0.000E+00

     total cpu time spent up to now is      360.1 secs

     End of self-consistent calculation

          k = 0.0000 0.0000 0.0000 (  5429 PWs)   bands (ev):

   -51.4504 -51.4365 -27.6630 -27.6557 -27.4326 -27.4326 -27.4231 -27.4231
   -10.3511 -10.2864  -9.0610  -8.9610  -2.1130  -1.8088   0.9723   0.9723
     1.0228   1.0228   1.3931   2.0769   2.0769   2.1167   2.1167   2.1291
     3.8434   4.2771   6.3257   6.3257   6.3687   6.3687   6.5028   6.5028
     6.5371   6.5371   8.5507   8.7283   9.0065   9.6094  11.3532  11.5627
    11.6238  11.9812  13.8544  13.8544  13.8797  13.8797  14.0207  15.7614
    15.7997  15.7997  16.0491  16.0491  16.1264  17.1020  18.0536  18.5255
    18.6688  18.6688  18.8018  19.1718

     occupation numbers 
     1.0000   1.0000   1.0000   1.0000   1.0000   1.0000   1.0000   1.0000
     1.0000   1.0000   1.0000   1.0000   1.0000   1.0000   1.0000   1.0000
     1.0000   1.0000   1.0000   1.0000   1.0000   1.0000   1.0000   1.0000
    -0.0023  -0.0000  -0.0000  -0.0000  -0.0000  -0.0000  -0.0000  -0.0000
    -0.0000  -0.0000  -0.0000  -0.0000  -0.0000  -0.0000  -0.0000  -0.0000
    -0.0000  -0.0000  -0.0000  -0.0000  -0.0000  -0.0000  -0.0000  -0.0000
    -0.0000  -0.0000  -0.0000  -0.0000  -0.0000  -0.0000  -0.0000  -0.0000
    -0.0000  -0.0000  -0.0000  -0.0000

          k = 0.0000 0.0825 0.0000 (  5395 PWs)   bands (ev):

   -51.4481 -51.4343 -27.6582 -27.6508 -27.4555 -27.4462 -27.4376 -27.4282
   -10.2808 -10.2165  -9.0378  -8.9402  -2.0290  -1.7253   0.7858   0.8340
     1.0437   1.0934   1.1747   1.6148   1.9561   1.9969   2.1922   2.4619
     3.8121   4.1804   6.2628   6.2955   6.3379   6.4058   6.4103   6.4758
     6.5032   6.5195   8.8045   9.0575   9.2194   9.7465  11.4732  11.7585
    11.9702  12.1805  13.5039  13.6818  14.0653  14.1060  14.1922  15.1719
    15.4469  15.7746  15.8664  16.0592  16.1245  17.1234  17.8812  18.4291
    18.6861  18.8787  19.0587  19.0995

     occupation numbers 
     1.0000   1.0000   1.0000   1.0000   1.0000   1.0000   1.0000   1.0000
     1.0000   1.0000   1.0000   1.0000   1.0000   1.0000   1.0000   1.0000
     1.0000   1.0000   1.0000   1.0000   1.0000   1.0000   1.0000   1.0004
    -0.0037  -0.0000  -0.0000  -0.0000  -0.0000  -0.0000  -0.0000  -0.0000
    -0.0000  -0.0000  -0.0000  -0.0000  -0.0000  -0.0000  -0.0000  -0.0000
    -0.0000  -0.0000  -0.0000  -0.0000  -0.0000  -0.0000  -0.0000  -0.0000
    -0.0000  -0.0000  -0.0000  -0.0000  -0.0000  -0.0000  -0.0000  -0.0000
    -0.0000  -0.0000  -0.0000  -0.0000

          k = 0.0000 0.1650 0.0000 (  5371 PWs)   bands (ev):

   -51.4419 -51.4280 -27.6447 -27.6372 -27.5193 -27.5106 -27.4518 -27.4424
   -10.0790 -10.0162  -8.9712  -8.8807  -1.8022  -1.5023   0.3346   0.3769
     0.7423   1.0554   1.2444   1.2902   1.6565   1.7010   2.2240   2.5635
     3.6616   3.8756   5.9579   6.1955   6.2501   6.2761   6.3338   6.3780
     6.8460   6.8849   9.1938   9.6995   9.9701  10.2903  11.7630  11.9589
    12.7523  12.8141  13.0080  13.2448  14.1761  14.3978  14.6541  14.7095
    14.7256  15.6874  15.7797  15.9207  16.1349  17.1020  17.1956  18.0493
    18.1039  18.4286  18.6584  19.0053

     occupation numbers 
     1.0000   1.0000   1.0000   1.0000   1.0000   1.0000   1.0000   1.0000
     1.0000   1.0000   1.0000   1.0000   1.0000   1.0000   1.0000   1.0000
     1.0000   1.0000   1.0000   1.0000   1.0000   1.0000   1.0000   1.0020
    -0.0200  -0.0014  -0.0000  -0.0000  -0.0000  -0.0000  -0.0000  -0.0000
    -0.0000  -0.0000  -0.0000  -0.0000  -0.0000  -0.0000  -0.0000  -0.0000
    -0.0000  -0.0000  -0.0000  -0.0000  -0.0000  -0.0000  -0.0000  -0.0000
    -0.0000  -0.0000  -0.0000  -0.0000  -0.0000  -0.0000  -0.0000  -0.0000
    -0.0000  -0.0000  -0.0000  -0.0000

          k = 0.0000 0.2474 0.0000 (  5379 PWs)   bands (ev):

   -51.4329 -51.4190 -27.6252 -27.6174 -27.6103 -27.6024 -27.4721 -27.4629
    -9.7731  -9.7134  -8.8702  -8.7910  -1.5343  -1.2602  -0.1487  -0.1172
     0.2518   0.4775   1.2924   1.3264   1.5338   1.5891   2.0744   2.4312
     3.3221   3.4267   5.8079   6.1368   6.1799   6.1934   6.4246   6.6367
     7.2682   7.3233   9.6342  10.1586  10.7262  11.2630  11.9829  12.2671
    12.5663  12.7344  12.7719  13.1624  14.1876  14.4969  14.9269  15.1787
    15.4422  15.5663  15.6209  15.9413  16.3697  16.5948  16.8498  17.3181
    17.5148  17.9136  18.1303  18.9702

     occupation numbers 
     1.0000   1.0000   1.0000   1.0000   1.0000   1.0000   1.0000   1.0000
     1.0000   1.0000   1.0000   1.0000   1.0000   1.0000   1.0000   1.0000
     1.0000   1.0000   1.0000   1.0000   1.0000   1.0000   1.0000   1.0002
     0.1775   0.0091  -0.0000  -0.0000  -0.0000  -0.0000  -0.0000  -0.0000
    -0.0000  -0.0000  -0.0000  -0.0000  -0.0000  -0.0000  -0.0000  -0.0000
    -0.0000  -0.0000  -0.0000  -0.0000  -0.0000  -0.0000  -0.0000  -0.0000
    -0.0000  -0.0000  -0.0000  -0.0000  -0.0000  -0.0000  -0.0000  -0.0000
    -0.0000  -0.0000  -0.0000  -0.0000

          k = 0.0000 0.3299 0.0000 (  5373 PWs)   bands (ev):

   -51.4228 -51.4089 -27.7097 -27.7025 -27.6033 -27.5954 -27.4947 -27.4856
    -9.4084  -9.3540  -8.7505  -8.6854  -1.4779  -1.3065  -0.4168  -0.3356
    -0.2201  -0.0664   0.9512   0.9913   1.8442   1.8540   1.8922   2.2135
     2.9534   3.0366   5.9367   6.0907   6.1388   6.3148   6.7642   7.0174
     7.6338   7.7110  10.1342  10.5401  10.9064  11.4735  11.6356  12.0824
    12.1347  12.6790  13.0918  13.4403  14.2593  14.8786  15.0382  15.2747
    15.5907  15.6669  15.8695  16.4157  16.5980  16.7403  16.8629  17.3261
    17.4360  17.6773  17.9270  18.6087

     occupation numbers 
     1.0000   1.0000   1.0000   1.0000   1.0000   1.0000   1.0000   1.0000
     1.0000   1.0000   1.0000   1.0000   1.0000   1.0000   1.0000   1.0000
     1.0000   1.0000   1.0000   1.0000   1.0000   1.0000   1.0000   1.0000
     1.0171   0.9330  -0.0000  -0.0000  -0.0000  -0.0000  -0.0000  -0.0000
    -0.0000  -0.0000  -0.0000  -0.0000  -0.0000  -0.0000  -0.0000  -0.0000
    -0.0000  -0.0000  -0.0000  -0.0000  -0.0000  -0.0000  -0.0000  -0.0000
    -0.0000  -0.0000  -0.0000  -0.0000  -0.0000  -0.0000  -0.0000  -0.0000
    -0.0000  -0.0000  -0.0000  -0.0000

          k = 0.0000 0.4124 0.0000 (  5379 PWs)   bands (ev):

   -51.4137 -51.3997 -27.7978 -27.7913 -27.5836 -27.5754 -27.5149 -27.5059
    -9.0491  -9.0033  -8.6342  -8.5843  -1.7224  -1.6366  -0.7152  -0.5732
    -0.3564  -0.2891   0.6822   0.7238   1.6763   2.0304   2.1020   2.1495
     2.8233   2.9185   6.1717   6.2046   6.2351   6.5296   7.0884   7.3469
     7.8868   7.9870  10.4445  10.5685  10.8160  11.0189  11.1467  11.7629
    11.9334  12.8355  13.1703  13.9078  14.0050  14.6677  14.8537  15.0348
    15.2325  15.5625  16.4713  16.7293  17.0259  17.1837  17.2524  17.6228
    18.2259  18.3107  18.3529  18.5250

     occupation numbers 
     1.0000   1.0000   1.0000   1.0000   1.0000   1.0000   1.0000   1.0000
     1.0000   1.0000   1.0000   1.0000   1.0000   1.0000   1.0000   1.0000
     1.0000   1.0000   1.0000   1.0000   1.0000   1.0000   1.0000   1.0000
     1.0312   1.0306  -0.0000  -0.0000  -0.0000  -0.0000  -0.0000  -0.0000
    -0.0000  -0.0000  -0.0000  -0.0000  -0.0000  -0.0000  -0.0000  -0.0000
    -0.0000  -0.0000  -0.0000  -0.0000  -0.0000  -0.0000  -0.0000  -0.0000
    -0.0000  -0.0000  -0.0000  -0.0000  -0.0000  -0.0000  -0.0000  -0.0000
    -0.0000  -0.0000  -0.0000  -0.0000

          k = 0.0000 0.4949 0.0000 (  5378 PWs)   bands (ev):

   -51.4075 -51.3934 -27.8580 -27.8520 -27.5700 -27.5616 -27.5288 -27.5199
    -8.7771  -8.7418  -8.5474  -8.5107  -1.9739  -1.9232  -1.0085  -0.8802
    -0.3880  -0.3504   0.5121   0.5544   1.5769   1.9231   2.2599   2.3099
     2.9392   3.0520   6.3181   6.3355   6.5841   6.7474   7.2546   7.5357
     8.0252   8.1428   9.6828  10.0902  10.9774  11.0302  11.2515  11.6668
    12.1324  12.8381  13.4004  13.4691  13.6834  14.1981  14.2382  14.5799
    15.2792  15.3584  16.2384  17.0195  17.3363  17.6236  17.8296  18.2354
    18.4161  18.7970  19.3239  19.5090

     occupation numbers 
     1.0000   1.0000   1.0000   1.0000   1.0000   1.0000   1.0000   1.0000
     1.0000   1.0000   1.0000   1.0000   1.0000   1.0000   1.0000   1.0000
     1.0000   1.0000   1.0000   1.0000   1.0000   1.0000   1.0000   1.0000
     1.0239   0.9077  -0.0000  -0.0000  -0.0000  -0.0000  -0.0000  -0.0000
    -0.0000  -0.0000  -0.0000  -0.0000  -0.0000  -0.0000  -0.0000  -0.0000
    -0.0000  -0.0000  -0.0000  -0.0000  -0.0000  -0.0000  -0.0000  -0.0000
    -0.0000  -0.0000  -0.0000  -0.0000  -0.0000  -0.0000  -0.0000  -0.0000
    -0.0000  -0.0000  -0.0000  -0.0000

          k = 0.0000-0.5774 0.0000 (  5356 PWs)   bands (ev):

   -51.4052 -51.3911 -27.8793 -27.8735 -27.5651 -27.5566 -27.5337 -27.5248
    -8.6740  -8.6446  -8.5147  -8.4837  -2.0714  -2.0318  -1.1150  -0.9908
    -0.4179  -0.3913   0.4541   0.4966   1.5467   1.8891   2.3110   2.3625
     3.0374   3.1488   6.3930   6.4039   6.8034   6.8257   7.2819   7.5903
     8.0681   8.1920   9.2808   9.8089  11.0362  11.0819  11.4860  11.5720
    12.5084  12.5656  13.1759  13.4008  13.9204  13.9441  14.0406  14.3230
    14.9984  15.0472  16.4065  16.8388  17.6640  17.7161  17.8908  18.6577
    18.8244  19.0706  19.7288  20.0001

     occupation numbers 
     1.0000   1.0000   1.0000   1.0000   1.0000   1.0000   1.0000   1.0000
     1.0000   1.0000   1.0000   1.0000   1.0000   1.0000   1.0000   1.0000
     1.0000   1.0000   1.0000   1.0000   1.0000   1.0000   1.0000   1.0001
     0.9318   0.6794  -0.0000  -0.0000  -0.0000  -0.0000  -0.0000  -0.0000
    -0.0000  -0.0000  -0.0000  -0.0000  -0.0000  -0.0000  -0.0000  -0.0000
    -0.0000  -0.0000  -0.0000  -0.0000  -0.0000  -0.0000  -0.0000  -0.0000
    -0.0000  -0.0000  -0.0000  -0.0000  -0.0000  -0.0000  -0.0000  -0.0000
    -0.0000  -0.0000  -0.0000  -0.0000

          k = 0.0714 0.1237 0.0000 (  5381 PWs)   bands (ev):

   -51.4439 -51.4301 -27.6490 -27.6416 -27.4980 -27.4891 -27.4481 -27.4387
   -10.1447 -10.0814  -8.9928  -8.9001  -1.8725  -1.5706   0.4722   0.5163
     0.8835   1.1751   1.2186   1.2405   1.6828   1.7220   2.2943   2.6046
     3.7219   3.9781   6.0492   6.2029   6.2212   6.2737   6.3309   6.3966
     6.7655   6.8063   9.0925   9.5488   9.7392  10.0823  11.6777  11.9230
    12.5390  12.6577  13.1279  13.4182  14.2029  14.4421  14.5253  14.5430
    14.8274  15.5949  15.8901  15.9354  16.0831  17.1948  17.6141  18.1174
    18.2883  18.5803  18.6758  19.0862

     occupation numbers 
     1.0000   1.0000   1.0000   1.0000   1.0000   1.0000   1.0000   1.0000
     1.0000   1.0000   1.0000   1.0000   1.0000   1.0000   1.0000   1.0000
     1.0000   1.0000   1.0000   1.0000   1.0000   1.0000   1.0000   1.0037
    -0.0113  -0.0002  -0.0000  -0.0000  -0.0000  -0.0000  -0.0000  -0.0000
    -0.0000  -0.0000  -0.0000  -0.0000  -0.0000  -0.0000  -0.0000  -0.0000
    -0.0000  -0.0000  -0.0000  -0.0000  -0.0000  -0.0000  -0.0000  -0.0000
    -0.0000  -0.0000  -0.0000  -0.0000  -0.0000  -0.0000  -0.0000  -0.0000
    -0.0000  -0.0000  -0.0000  -0.0000

          k = 0.0714 0.2062 0.0000 (  5360 PWs)   bands (ev):

   -51.4363 -51.4224 -27.6325 -27.6249 -27.5731 -27.5649 -27.4676 -27.4584
    -9.8906  -9.8295  -8.9087  -8.8251  -1.6140  -1.3230   0.0167   0.0525
     0.4843   0.7476   1.2472   1.2850   1.3994   1.4565   2.3006   2.6089
     3.4750   3.5942   5.8030   6.0627   6.1867   6.2510   6.2753   6.4339
     7.1959   7.2506   9.4794  10.0354  10.5959  10.9521  11.9984  12.0923
    12.6713  12.9867  13.0670  13.2083  14.0836  14.1586  14.5955  14.9279
    15.0237  15.5070  15.6318  15.9231  16.0718  16.9728  17.2508  17.4214
    17.6784  18.1136  18.4031  19.2850

     occupation numbers 
     1.0000   1.0000   1.0000   1.0000   1.0000   1.0000   1.0000   1.0000
     1.0000   1.0000   1.0000   1.0000   1.0000   1.0000   1.0000   1.0000
     1.0000   1.0000   1.0000   1.0000   1.0000   1.0000   1.0000   1.0039
    -0.0230  -0.0311  -0.0000  -0.0000  -0.0000  -0.0000  -0.0000  -0.0000
    -0.0000  -0.0000  -0.0000  -0.0000  -0.0000  -0.0000  -0.0000  -0.0000
    -0.0000  -0.0000  -0.0000  -0.0000  -0.0000  -0.0000  -0.0000  -0.0000
    -0.0000  -0.0000  -0.0000  -0.0000  -0.0000  -0.0000  -0.0000  -0.0000
    -0.0000  -0.0000  -0.0000  -0.0000

          k = 0.0714 0.2887 0.0000 (  5377 PWs)   bands (ev):

   -51.4267 -51.4128 -27.6654 -27.6579 -27.6118 -27.6040 -27.4920 -27.4829
    -9.5541  -9.4972  -8.7973  -8.7264  -1.4241  -1.1966  -0.3320  -0.2911
     0.0147   0.1883   0.8668   0.9415   1.6406   1.6863   2.1380   2.4359
     3.1172   3.1814   5.7494   5.9957   6.1889   6.3394   6.5034   6.7117
     7.6110   7.6701   9.9651  10.4529  11.0662  11.7189  11.9316  12.3360
    12.4855  12.5860  12.9506  13.1360  14.3040  14.7043  14.8564  14.9624
    15.1686  15.6036  15.6447  16.1019  16.1569  16.5633  16.7992  17.4035
    17.6435  17.8033  18.2721  19.2999

     occupation numbers 
     1.0000   1.0000   1.0000   1.0000   1.0000   1.0000   1.0000   1.0000
     1.0000   1.0000   1.0000   1.0000   1.0000   1.0000   1.0000   1.0000
     1.0000   1.0000   1.0000   1.0000   1.0000   1.0000   1.0000   1.0002
     0.7657   0.5825  -0.0000  -0.0000  -0.0000  -0.0000  -0.0000  -0.0000
    -0.0000  -0.0000  -0.0000  -0.0000  -0.0000  -0.0000  -0.0000  -0.0000
    -0.0000  -0.0000  -0.0000  -0.0000  -0.0000  -0.0000  -0.0000  -0.0000
    -0.0000  -0.0000  -0.0000  -0.0000  -0.0000  -0.0000  -0.0000  -0.0000
    -0.0000  -0.0000  -0.0000  -0.0000

          k = 0.0714 0.3712 0.0000 (  5384 PWs)   bands (ev):

   -51.4172 -51.4032 -27.7561 -27.7493 -27.5911 -27.5830 -27.5163 -27.5074
    -9.1894  -9.1396  -8.6773  -8.6211  -1.5448  -1.4281  -0.5350  -0.4087
    -0.3262  -0.2550   0.6286   0.7076   1.8063   1.8540   1.9092   2.2030
     2.9093   2.9748   5.8924   6.0793   6.3317   6.4844   6.8622   7.0838
     7.8990   7.9465  10.4680  10.8080  11.0477  11.1653  11.5271  12.0038
    12.1024  12.8669  13.1505  13.8082  14.1892  14.5202  14.8864  15.1358
    15.1980  15.4884  15.7373  16.3042  16.3601  17.0893  17.3182  17.6677
    17.9754  18.1663  18.3018  18.4147

     occupation numbers 
     1.0000   1.0000   1.0000   1.0000   1.0000   1.0000   1.0000   1.0000
     1.0000   1.0000   1.0000   1.0000   1.0000   1.0000   1.0000   1.0000
     1.0000   1.0000   1.0000   1.0000   1.0000   1.0000   1.0000   1.0000
     1.0325   1.0032  -0.0000  -0.0000  -0.0000  -0.0000  -0.0000  -0.0000
    -0.0000  -0.0000  -0.0000  -0.0000  -0.0000  -0.0000  -0.0000  -0.0000
    -0.0000  -0.0000  -0.0000  -0.0000  -0.0000  -0.0000  -0.0000  -0.0000
    -0.0000  -0.0000  -0.0000  -0.0000  -0.0000  -0.0000  -0.0000  -0.0000
    -0.0000  -0.0000  -0.0000  -0.0000

          k = 0.0714 0.4536 0.0000 (  5397 PWs)   bands (ev):

   -51.4095 -51.3954 -27.8279 -27.8217 -27.5744 -27.5661 -27.5357 -27.5269
    -8.8694  -8.8294  -8.5731  -8.5313  -1.8051  -1.7418  -0.9170  -0.8027
    -0.3415  -0.2928   0.5039   0.5665   1.6968   1.9208   1.9555   2.0189
     2.9736   3.0592   6.1518   6.2647   6.5479   6.6638   7.1953   7.4102
     7.9820   8.0479  10.1583  10.4867  11.0637  11.1930  11.3137  11.8078
    12.1216  12.9696  13.2842  13.6890  13.8442  13.9770  14.4328  14.7752
    15.4304  15.5986  16.3120  16.7240  16.8396  17.2687  17.5919  17.8650
    18.0096  18.4797  18.8442  19.1771

     occupation numbers 
     1.0000   1.0000   1.0000   1.0000   1.0000   1.0000   1.0000   1.0000
     1.0000   1.0000   1.0000   1.0000   1.0000   1.0000   1.0000   1.0000
     1.0000   1.0000   1.0000   1.0000   1.0000   1.0000   1.0000   1.0000
     1.0042   0.8948  -0.0000  -0.0000  -0.0000  -0.0000  -0.0000  -0.0000
    -0.0000  -0.0000  -0.0000  -0.0000  -0.0000  -0.0000  -0.0000  -0.0000
    -0.0000  -0.0000  -0.0000  -0.0000  -0.0000  -0.0000  -0.0000  -0.0000
    -0.0000  -0.0000  -0.0000  -0.0000  -0.0000  -0.0000  -0.0000  -0.0000
    -0.0000  -0.0000  -0.0000  -0.0000

          k = 0.0714 0.5361 0.0000 (  5378 PWs)   bands (ev):

   -51.4052 -51.3911 -27.8673 -27.8614 -27.5651 -27.5567 -27.5465 -27.5377
    -8.6775  -8.6470  -8.5109  -8.4793  -1.9736  -1.9342  -1.1400  -1.0325
    -0.3858  -0.3612   0.4537   0.5004   1.5860   1.9003   1.9865   2.0412
     3.1271   3.2268   6.3360   6.3738   6.7851   6.8484   7.3903   7.6362
     7.9044   8.0330   9.4620  10.0190  11.2664  11.3612  11.5760  11.8481
    12.3554  12.7929  13.0655  13.5191  13.6527  13.7580  14.1350  14.4483
    15.1109  15.3872  16.2793  16.8196  17.4439  17.5466  17.8276  18.1813
    18.5385  18.9118  19.2254  19.4731

     occupation numbers 
     1.0000   1.0000   1.0000   1.0000   1.0000   1.0000   1.0000   1.0000
     1.0000   1.0000   1.0000   1.0000   1.0000   1.0000   1.0000   1.0000
     1.0000   1.0000   1.0000   1.0000   1.0000   1.0000   1.0000   1.0000
     0.7398   0.4418  -0.0000  -0.0000  -0.0000  -0.0000  -0.0000  -0.0000
    -0.0000  -0.0000  -0.0000  -0.0000  -0.0000  -0.0000  -0.0000  -0.0000
    -0.0000  -0.0000  -0.0000  -0.0000  -0.0000  -0.0000  -0.0000  -0.0000
    -0.0000  -0.0000  -0.0000  -0.0000  -0.0000  -0.0000  -0.0000  -0.0000
    -0.0000  -0.0000  -0.0000  -0.0000

          k = 0.1429 0.2474 0.0000 (  5362 PWs)   bands (ev):

   -51.4281 -51.4142 -27.6455 -27.6378 -27.6148 -27.6070 -27.4952 -27.4861
    -9.6050  -9.5473  -8.8134  -8.7404  -1.4052  -1.1537  -0.2865  -0.2548
     0.1981   0.3584   0.6945   0.7715   1.5292   1.5727   2.3402   2.5971
     3.2046   3.2372   5.6645   5.9146   6.2070   6.3320   6.3607   6.5530
     7.6445   7.7098   9.9120  10.4435  11.2744  11.8584  12.0830  12.3891
    12.5219  12.7398  13.0516  13.0565  14.1954  14.5283  14.5990  14.6891
    14.7975  15.3807  15.4837  16.0261  16.3194  16.4473  16.5677  17.7042
    17.8189  18.1297  18.2824  19.5524

     occupation numbers 
     1.0000   1.0000   1.0000   1.0000   1.0000   1.0000   1.0000   1.0000
     1.0000   1.0000   1.0000   1.0000   1.0000   1.0000   1.0000   1.0000
     1.0000   1.0000   1.0000   1.0000   1.0000   1.0000   1.0000   1.0033
     0.5106   0.4099  -0.0000  -0.0000  -0.0000  -0.0000  -0.0000  -0.0000
    -0.0000  -0.0000  -0.0000  -0.0000  -0.0000  -0.0000  -0.0000  -0.0000
    -0.0000  -0.0000  -0.0000  -0.0000  -0.0000  -0.0000  -0.0000  -0.0000
    -0.0000  -0.0000  -0.0000  -0.0000  -0.0000  -0.0000  -0.0000  -0.0000
    -0.0000  -0.0000  -0.0000  -0.0000

          k = 0.1429 0.3299 0.0000 (  5383 PWs)   bands (ev):

   -51.4191 -51.4051 -27.7225 -27.7154 -27.5952 -27.5872 -27.5280 -27.5191
    -9.2657  -9.2138  -8.6993  -8.6395  -1.3911  -1.2414  -0.3986  -0.3109
    -0.2428  -0.1881   0.4058   0.5560   1.5091   1.5480   2.2000   2.4205
     3.0027   3.0300   5.6835   5.9674   6.3933   6.5016   6.6019   6.7881
     7.9883   8.0435  10.4403  10.8676  11.3982  11.6383  12.0264  12.2478
    12.5908  12.9979  13.1195  13.4482  14.1755  14.4383  14.6678  14.6918
    14.7799  15.0321  15.3465  15.7575  16.0804  17.0853  17.1228  17.5956
    18.0810  18.2739  18.6196  18.9931

     occupation numbers 
     1.0000   1.0000   1.0000   1.0000   1.0000   1.0000   1.0000   1.0000
     1.0000   1.0000   1.0000   1.0000   1.0000   1.0000   1.0000   1.0000
     1.0000   1.0000   1.0000   1.0000   1.0000   1.0000   1.0000   1.0002
     0.9775   0.9429  -0.0000  -0.0000  -0.0000  -0.0000  -0.0000  -0.0000
    -0.0000  -0.0000  -0.0000  -0.0000  -0.0000  -0.0000  -0.0000  -0.0000
    -0.0000  -0.0000  -0.0000  -0.0000  -0.0000  -0.0000  -0.0000  -0.0000
    -0.0000  -0.0000  -0.0000  -0.0000  -0.0000  -0.0000  -0.0000  -0.0000
    -0.0000  -0.0000  -0.0000  -0.0000

          k = 0.1429 0.4124 0.0000 (  5384 PWs)   bands (ev):

   -51.4109 -51.3968 -27.7901 -27.7836 -27.5775 -27.5692 -27.5582 -27.5496
    -8.9339  -8.8907  -8.5872  -8.5416  -1.5696  -1.4862  -0.8324  -0.7623
    -0.2697  -0.1962   0.3671   0.5026   1.3907   1.4338   1.9463   2.1622
     3.0297   3.0790   5.9139   6.2014   6.6106   6.6393   6.9351   7.1144
     8.1018   8.1818  10.6841  10.9669  11.1904  11.4333  11.6232  12.1967
    12.3865  13.1130  13.3377  13.5579  13.8851  14.1721  14.3053  15.1145
    15.2523  15.3358  15.6062  16.1163  16.3117  17.0882  17.3667  17.5765
    17.8111  18.2273  18.5012  18.9248

     occupation numbers 
     1.0000   1.0000   1.0000   1.0000   1.0000   1.0000   1.0000   1.0000
     1.0000   1.0000   1.0000   1.0000   1.0000   1.0000   1.0000   1.0000
     1.0000   1.0000   1.0000   1.0000   1.0000   1.0000   1.0000   1.0000
     0.9433   0.8556  -0.0000  -0.0000  -0.0000  -0.0000  -0.0000  -0.0000
    -0.0000  -0.0000  -0.0000  -0.0000  -0.0000  -0.0000  -0.0000  -0.0000
    -0.0000  -0.0000  -0.0000  -0.0000  -0.0000  -0.0000  -0.0000  -0.0000
    -0.0000  -0.0000  -0.0000  -0.0000  -0.0000  -0.0000  -0.0000  -0.0000
    -0.0000  -0.0000  -0.0000  -0.0000

          k = 0.1429 0.4949 0.0000 (  5373 PWs)   bands (ev):

   -51.4052 -51.3911 -27.8361 -27.8300 -27.5794 -27.5708 -27.5651 -27.5567
    -8.6852  -8.6524  -8.5025  -8.4694  -1.7256  -1.6794  -1.1912  -1.1212
    -0.2981  -0.2642   0.4189   0.5147   1.3375   1.4032   1.7034   1.9376
     3.2139   3.2834   6.1558   6.2837   6.7994   6.8935   7.2823   7.4161
     7.9602   8.1485   9.9201  10.5183  11.5702  11.7147  11.9188  12.1279
    12.5350  12.7813  13.1653  13.4409  13.7281  13.9267  14.1421  14.7998
    15.3821  15.7534  16.0153  16.3954  16.8441  16.9258  17.5009  17.5369
    17.9388  18.3500  18.4426  19.0756

     occupation numbers 
     1.0000   1.0000   1.0000   1.0000   1.0000   1.0000   1.0000   1.0000
     1.0000   1.0000   1.0000   1.0000   1.0000   1.0000   1.0000   1.0000
     1.0000   1.0000   1.0000   1.0000   1.0000   1.0000   1.0000   1.0000
     0.4817   0.2754  -0.0000  -0.0000  -0.0000  -0.0000  -0.0000  -0.0000
    -0.0000  -0.0000  -0.0000  -0.0000  -0.0000  -0.0000  -0.0000  -0.0000
    -0.0000  -0.0000  -0.0000  -0.0000  -0.0000  -0.0000  -0.0000  -0.0000
    -0.0000  -0.0000  -0.0000  -0.0000  -0.0000  -0.0000  -0.0000  -0.0000
    -0.0000  -0.0000  -0.0000  -0.0000

          k = 0.1429 0.5774 0.0000 (  5380 PWs)   bands (ev):

   -51.4032 -51.3891 -27.8525 -27.8465 -27.5869 -27.5785 -27.5607 -27.5522
    -8.5918  -8.5649  -8.4701  -8.4423  -1.7784  -1.7527  -1.3183  -1.2478
    -0.3432  -0.3194   0.4610   0.5274   1.3343   1.4104   1.5985   1.8463
     3.3273   3.4088   6.2059   6.2414   6.9430   7.0769   7.5049   7.5619
     7.7769   8.0749   9.5624  10.2248  11.8916  12.0246  12.1278  12.3417
    12.3526  12.7090  12.7370  13.2037  13.7591  13.9673  14.3098  14.4356
    15.2304  15.5285  16.2752  16.5533  16.7511  17.2823  17.5155  17.6742
    18.0574  18.3869  18.9380  19.0396

     occupation numbers 
     1.0000   1.0000   1.0000   1.0000   1.0000   1.0000   1.0000   1.0000
     1.0000   1.0000   1.0000   1.0000   1.0000   1.0000   1.0000   1.0000
     1.0000   1.0000   1.0000   1.0000   1.0000   1.0000   1.0000   1.0000
     0.1656   0.0277  -0.0000  -0.0000  -0.0000  -0.0000  -0.0000  -0.0000
    -0.0000  -0.0000  -0.0000  -0.0000  -0.0000  -0.0000  -0.0000  -0.0000
    -0.0000  -0.0000  -0.0000  -0.0000  -0.0000  -0.0000  -0.0000  -0.0000
    -0.0000  -0.0000  -0.0000  -0.0000  -0.0000  -0.0000  -0.0000  -0.0000
    -0.0000  -0.0000  -0.0000  -0.0000

          k = 0.2143 0.3712 0.0000 (  5374 PWs)   bands (ev):

   -51.4114 -51.3973 -27.7707 -27.7640 -27.5786 -27.5723 -27.5703 -27.5638
    -8.9570  -8.9127  -8.5915  -8.5445  -1.4519  -1.3528  -0.7817  -0.7544
    -0.2293  -0.1260   0.2882   0.4597   1.1342   1.1671   2.0752   2.2385
     3.0444   3.0771   5.8171   6.1645   6.6359   6.6488   6.7888   6.9540
     8.2196   8.2669  10.8765  11.2088  11.3197  11.3972  11.8949  12.3918
    12.6794  13.1508  13.2797  13.5089  14.0657  14.1971  14.5244  14.6836
    14.9623  15.3265  15.5034  15.6138  15.8722  17.0829  17.3540  17.3957
    17.9416  18.1378  18.5859  19.1942

     occupation numbers 
     1.0000   1.0000   1.0000   1.0000   1.0000   1.0000   1.0000   1.0000
     1.0000   1.0000   1.0000   1.0000   1.0000   1.0000   1.0000   1.0000
     1.0000   1.0000   1.0000   1.0000   1.0000   1.0000   1.0000   1.0000
     0.9206   0.8595  -0.0000  -0.0000  -0.0000  -0.0000  -0.0000  -0.0000
    -0.0000  -0.0000  -0.0000  -0.0000  -0.0000  -0.0000  -0.0000  -0.0000
    -0.0000  -0.0000  -0.0000  -0.0000  -0.0000  -0.0000  -0.0000  -0.0000
    -0.0000  -0.0000  -0.0000  -0.0000  -0.0000  -0.0000  -0.0000  -0.0000
    -0.0000  -0.0000  -0.0000  -0.0000

          k = 0.2143 0.4536 0.0000 (  5373 PWs)   bands (ev):

   -51.4052 -51.3911 -27.8037 -27.7973 -27.6132 -27.6049 -27.5652 -27.5568
    -8.6913  -8.6568  -8.4957  -8.4614  -1.4890  -1.4181  -1.2262  -1.1892
    -0.1754  -0.0964   0.3743   0.5227   0.7729   0.8160   1.8230   1.9690
     3.2515   3.2822   5.9996   6.1952   6.8145   6.9169   7.0405   7.1629
     8.2823   8.3701  10.4864  10.9149  11.4821  11.6687  11.8286  12.6168
    12.6742  12.8863  13.1736  13.8639  14.0801  14.4112  14.6219  15.1134
    15.2743  15.3892  15.6044  15.9152  16.2951  16.6495  16.7243  17.2617
    17.6023  18.0277  18.0920  18.6231

     occupation numbers 
     1.0000   1.0000   1.0000   1.0000   1.0000   1.0000   1.0000   1.0000
     1.0000   1.0000   1.0000   1.0000   1.0000   1.0000   1.0000   1.0000
     1.0000   1.0000   1.0000   1.0000   1.0000   1.0000   1.0000   1.0000
     0.3667   0.2787  -0.0000  -0.0000  -0.0000  -0.0000  -0.0000  -0.0000
    -0.0000  -0.0000  -0.0000  -0.0000  -0.0000  -0.0000  -0.0000  -0.0000
    -0.0000  -0.0000  -0.0000  -0.0000  -0.0000  -0.0000  -0.0000  -0.0000
    -0.0000  -0.0000  -0.0000  -0.0000  -0.0000  -0.0000  -0.0000  -0.0000
    -0.0000  -0.0000  -0.0000  -0.0000

          k = 0.2143 0.5361 0.0000 (  5356 PWs)   bands (ev):

   -51.4018 -51.3877 -27.8197 -27.8135 -27.6380 -27.6299 -27.5577 -27.5492
    -8.5356  -8.5104  -8.4372  -8.4114  -1.4834  -1.4540  -1.4453  -1.4136
    -0.2762  -0.2158   0.5087   0.6029   0.6259   0.7063   1.5996   1.7554
     3.4857   3.5319   5.9528   5.9921   7.0354   7.1376   7.2785   7.3618
     8.2442   8.4081   9.9491  10.5870  11.3978  12.0116  12.1778  12.6187
    12.9354  13.0799  13.2138  13.7212  14.0867  14.3869  14.5718  14.9441
    15.2417  15.7036  15.7498  16.1132  16.3850  16.7105  16.7661  16.9465
    17.6938  17.8807  18.0573  18.6856

     occupation numbers 
     1.0000   1.0000   1.0000   1.0000   1.0000   1.0000   1.0000   1.0000
     1.0000   1.0000   1.0000   1.0000   1.0000   1.0000   1.0000   1.0000
     1.0000   1.0000   1.0000   1.0000   1.0000   1.0000   1.0000   1.0000
    -0.0271  -0.0353  -0.0000  -0.0000  -0.0000  -0.0000  -0.0000  -0.0000
    -0.0000  -0.0000  -0.0000  -0.0000  -0.0000  -0.0000  -0.0000  -0.0000
    -0.0000  -0.0000  -0.0000  -0.0000  -0.0000  -0.0000  -0.0000  -0.0000
    -0.0000  -0.0000  -0.0000  -0.0000  -0.0000  -0.0000  -0.0000  -0.0000
    -0.0000  -0.0000  -0.0000  -0.0000

          k = 0.2857 0.4949 0.0000 (  5362 PWs)   bands (ev):

   -51.4013 -51.3872 -27.7967 -27.7905 -27.6677 -27.6597 -27.5567 -27.5481
    -8.5163  -8.4916  -8.4244  -8.3992  -1.5391  -1.5073  -1.2735  -1.2038
    -0.1861  -0.0655   0.1866   0.2598   0.5352   0.6697   1.6069   1.7007
     3.5655   3.5722   5.8225   5.8692   6.9683   7.0523   7.2622   7.4154
     8.4995   8.5425  10.4297  10.5629  11.2181  11.4891  12.0849  13.0240
    13.1051  13.3666  13.4760  14.3502  14.4468  14.7302  14.8237  15.0582
    15.2044  15.4279  15.6775  15.9288  16.0653  16.2224  16.6413  16.8107
    16.8859  17.5539  17.9281  18.6082

     occupation numbers 
     1.0000   1.0000   1.0000   1.0000   1.0000   1.0000   1.0000   1.0000
     1.0000   1.0000   1.0000   1.0000   1.0000   1.0000   1.0000   1.0000
     1.0000   1.0000   1.0000   1.0000   1.0000   1.0000   1.0000   1.0000
    -0.0344  -0.0338  -0.0000  -0.0000  -0.0000  -0.0000  -0.0000  -0.0000
    -0.0000  -0.0000  -0.0000  -0.0000  -0.0000  -0.0000  -0.0000  -0.0000
    -0.0000  -0.0000  -0.0000  -0.0000  -0.0000  -0.0000  -0.0000  -0.0000
    -0.0000  -0.0000  -0.0000  -0.0000  -0.0000  -0.0000  -0.0000  -0.0000
    -0.0000  -0.0000  -0.0000  -0.0000

          k = 0.2857 0.5774 0.0000 (  5370 PWs)   bands (ev):

   -51.3999 -51.3858 -27.7859 -27.7798 -27.6955 -27.6875 -27.5536 -27.5451
    -8.4528  -8.4342  -8.3964  -8.3737  -1.6535  -1.6209  -1.0740  -1.0261
    -0.3504  -0.2669   0.0372   0.1353   0.6482   0.7673   1.4819   1.5494
     3.7430   3.7598   5.6338   5.6564   6.9975   7.0355   7.4758   7.5695
     8.5779   8.6395  10.2323  10.7175  10.7820  11.4639  12.2272  13.2990
    13.5297  13.6099  14.0171  14.0318  14.4812  14.6776  14.7918  15.0691
    15.2347  15.5377  15.6326  15.8767  15.9843  16.3280  16.4381  16.7021
    16.8210  17.1772  18.3322  18.6137

     occupation numbers 
     1.0000   1.0000   1.0000   1.0000   1.0000   1.0000   1.0000   1.0000
     1.0000   1.0000   1.0000   1.0000   1.0000   1.0000   1.0000   1.0000
     1.0000   1.0000   1.0000   1.0000   1.0000   1.0000   1.0000   1.0000
    -0.0089  -0.0073  -0.0000  -0.0000  -0.0000  -0.0000  -0.0000  -0.0000
    -0.0000  -0.0000  -0.0000  -0.0000  -0.0000  -0.0000  -0.0000  -0.0000
    -0.0000  -0.0000  -0.0000  -0.0000  -0.0000  -0.0000  -0.0000  -0.0000
    -0.0000  -0.0000  -0.0000  -0.0000  -0.0000  -0.0000  -0.0000  -0.0000
    -0.0000  -0.0000  -0.0000  -0.0000

     the Fermi energy is     3.2080 ev

!    total energy              =    -907.91149944 Ry

     total all-electron energy =    -18448.320522 Ry
     estimated scf accuracy    <          4.9E-10 Ry
     smearing contrib. (-TS)   =      -0.00196775 Ry
     internal energy E=F+TS    =    -907.90953169 Ry

     The total energy is F=E-TS. E is the sum of the following terms:
     one-electron contribution =   -1048.08182932 Ry
     hartree contribution      =     537.56962477 Ry
     xc contribution           =     -65.32320907 Ry
     ewald contribution        =     256.18108273 Ry
     one-center paw contrib.   =    -588.25520080 Ry
      -> PAW hartree energy AE =     100.87607778 Ry
      -> PAW hartree energy PS =    -100.36195114 Ry
      -> PAW xc energy AE      =    -324.79852919 Ry
      -> PAW xc energy PS      =      30.15761748 Ry
      -> total E_H with PAW    =     538.08375140 Ry
      -> total E_XC with PAW   =    -359.96412077 Ry

     convergence has been achieved in  14 iterations

     Writing output data file ./tmp/NbS2_bi.save/

     init_run     :      7.20s CPU      7.39s WALL (       1 calls)
     electrons    :    346.19s CPU    351.71s WALL (       1 calls)

     Called by init_run:
     wfcinit      :      5.80s CPU      5.89s WALL (       1 calls)
     wfcinit:atom :      0.03s CPU      0.03s WALL (      24 calls)
     wfcinit:wfcr :      5.64s CPU      5.73s WALL (      24 calls)
     potinit      :      0.32s CPU      0.34s WALL (       1 calls)
     hinit0       :      0.61s CPU      0.61s WALL (       1 calls)

     Called by electrons:
     c_bands      :    294.54s CPU    296.41s WALL (      15 calls)
     sum_band     :     43.28s CPU     45.42s WALL (      15 calls)
     v_of_rho     :      0.68s CPU      0.70s WALL (      15 calls)
     v_h          :      0.25s CPU      0.26s WALL (      15 calls)
     v_xc         :      0.43s CPU      0.44s WALL (      15 calls)
     newd         :      6.43s CPU      7.95s WALL (      15 calls)
     PAW_pot      :      0.91s CPU      0.91s WALL (      15 calls)
     mix_rho      :      0.51s CPU      0.52s WALL (      15 calls)

     Called by c_bands:
     init_us_2    :      1.11s CPU      1.13s WALL (     744 calls)
     cegterg      :    290.85s CPU    292.58s WALL (     360 calls)

     Called by sum_band:
     sum_band:wei :      0.03s CPU      0.03s WALL (      15 calls)
     sum_band:loo :     34.18s CPU     34.57s WALL (      15 calls)
     sum_band:buf :      0.47s CPU      0.48s WALL (     360 calls)
     sum_band:ini :      0.50s CPU      0.50s WALL (     360 calls)
     sum_band:cal :      8.49s CPU      8.51s WALL (     360 calls)
     sum_band:bec :      0.04s CPU      0.04s WALL (     360 calls)
     addusdens    :      8.06s CPU      9.79s WALL (      15 calls)
     addusd:skk   :      0.03s CPU      0.05s WALL (      30 calls)
     addusd:dgemm :      3.08s CPU      4.53s WALL (      30 calls)
     addusd:qvan2 :      4.44s CPU      4.45s WALL (      30 calls)

     Called by *egterg:
     cdiaghg      :     10.12s CPU     10.14s WALL (    1668 calls)
     cegterg:over :     36.63s CPU     36.69s WALL (    1332 calls)
     cegterg:upda :     17.84s CPU     17.86s WALL (    1332 calls)
     cegterg:last :     50.48s CPU     50.50s WALL (     636 calls)
     h_psi        :    141.31s CPU    142.92s WALL (    1716 calls)
     s_psi        :     17.73s CPU     17.77s WALL (    1716 calls)
     g_psi        :      0.35s CPU      0.36s WALL (    1332 calls)

     Called by h_psi:
     h_psi:calbec :     20.72s CPU     20.79s WALL (    1716 calls)
     vloc_psi     :    102.15s CPU    103.66s WALL (    1716 calls)
     add_vuspsi   :     17.54s CPU     17.56s WALL (    1716 calls)

     General routines
     calbec       :     29.19s CPU     29.30s WALL (    2076 calls)
     fft          :      1.17s CPU      1.22s WALL (      89 calls)
     ffts         :      0.06s CPU      0.06s WALL (      30 calls)
     fftw         :    113.53s CPU    115.21s WALL (  124678 calls)
     interpolate  :      0.25s CPU      0.26s WALL (      15 calls)

     Parallel routines
     fft_scatt_xy :     11.55s CPU     11.72s WALL (  124797 calls)
     fft_scatt_yz :     18.23s CPU     18.46s WALL (  124797 calls)

     PAW routines
     PAW_pot      :      0.91s CPU      0.91s WALL (      15 calls)
     PAW_symme    :      0.00s CPU      0.00s WALL (      30 calls)

     PWSCF        :   5m54.79s CPU   6m 1.55s WALL


   This run was terminated on:  17:10:31  14Jun2021            

=------------------------------------------------------------------------------=
   JOB DONE.
=------------------------------------------------------------------------------=
