
     Program PWSCF v.6.6 starts on 14Jun2021 at 17:10:31 

     This program is part of the open-source Quantum ESPRESSO suite
     for quantum simulation of materials; please cite
         "P. Giannozzi et al., J. Phys.:Condens. Matter 21 395502 (2009);
         "P. Giannozzi et al., J. Phys.:Condens. Matter 29 465901 (2017);
          URL http://www.quantum-espresso.org", 
     in publications or presentations arising from this work. More details at
     http://www.quantum-espresso.org/quote

     Parallel version (MPI), running on     2 processors

     MPI processes distributed on     1 nodes
     R & G space division:  proc/nbgrp/npool/nimage =       2
     Fft bands division:     nmany     =       1
     Waiting for input...
     Reading input from standard input

     Current dimensions of program PWSCF are:
     Max number of different atomic species (ntypx) = 10
     Max number of k-points (npk) =  40000
     Max angular momentum in pseudopotentials (lmaxx) =  3
     file Nb.pz-spn-kjpaw_psl.1.0.0.UPF: wavefunction(s)  4S 4P 4D renormalized
     file S.pz-n-kjpaw_psl.0.1.UPF: wavefunction(s)  3P renormalized

     Subspace diagonalization in iterative solution of the eigenvalue problem:
     a serial algorithm will be used


     Parallelization info
     --------------------
     sticks:   dense  smooth     PW     G-vecs:    dense   smooth      PW
     Min         534     210     60                85019    21488    3582
     Max         535     211     61                85022    21517    3607
     Sum        1069     421    121               170041    43005    7189



     bravais-lattice index     =            4
     lattice parameter (alat)  =       6.2006  a.u.
     unit-cell volume          =    1258.4114 (a.u.)^3
     number of atoms/cell      =            6
     number of atomic types    =            2
     number of electrons       =        50.00
     number of Kohn-Sham states=           60
     kinetic-energy cutoff     =      40.0000  Ry
     charge density cutoff     =     400.0000  Ry
     convergence threshold     =      1.0E-08
     mixing beta               =       0.7000
     number of iterations used =            8  plain     mixing
     Exchange-correlation= SLA PZ NOGX NOGC
                           (   1   1   0   0   0   0   0)

     celldm(1)=   6.200569  celldm(2)=   0.000000  celldm(3)=   6.095331
     celldm(4)=   0.000000  celldm(5)=   0.000000  celldm(6)=   0.000000

     crystal axes: (cart. coord. in units of alat)
               a(1) = (   1.000000   0.000000   0.000000 )  
               a(2) = (  -0.500000   0.866025   0.000000 )  
               a(3) = (   0.000000   0.000000   6.095331 )  

     reciprocal axes: (cart. coord. in units 2 pi/alat)
               b(1) = (  1.000000  0.577350 -0.000000 )  
               b(2) = (  0.000000  1.154701  0.000000 )  
               b(3) = (  0.000000 -0.000000  0.164060 )  


     PseudoPot. # 1 for Nb read from file:
     ../Nb.pz-spn-kjpaw_psl.1.0.0.UPF
     MD5 check sum: 38c2e04b3cc915696ca8dc9f46a23270
     Pseudo is Projector augmented-wave + core cor, Zval = 13.0
     Generated using "atomic" code by A. Dal Corso v.6.2.2
     Shape of augmentation charge: PSQ
     Using radial grid of 1227 points,  6 beta functions with: 
                l(1) =   0
                l(2) =   0
                l(3) =   1
                l(4) =   1
                l(5) =   2
                l(6) =   2
     Q(r) pseudized with 0 coefficients 


     PseudoPot. # 2 for S  read from file:
     ../S.pz-n-kjpaw_psl.0.1.UPF
     MD5 check sum: c0b1682311cf098e03f7841691d9a679
     Pseudo is Projector augmented-wave + core cor, Zval =  6.0
     Generated using "atomic" code by A. Dal Corso v.5.0.2 svn rev. 9415
     Shape of augmentation charge: PSQ
     Using radial grid of 1151 points,  4 beta functions with: 
                l(1) =   0
                l(2) =   0
                l(3) =   1
                l(4) =   1
     Q(r) pseudized with 0 coefficients 


     atomic species   valence    mass     pseudopotential
        Nb            13.00    92.90600     Nb( 1.00)
        S              6.00    32.06500     S ( 1.00)

      6 Sym. Ops. (no inversion) found


                                    s                        frac. trans.

      isym =  1     identity                                     

 cryst.   s( 1) = (     1          0          0      )
                  (     0          1          0      )
                  (     0          0          1      )

 cart.    s( 1) = (  1.0000000  0.0000000  0.0000000 )
                  (  0.0000000  1.0000000  0.0000000 )
                  (  0.0000000  0.0000000  1.0000000 )


      isym =  2     120 deg rotation - cryst. axis [0,0,1]       

 cryst.   s( 2) = (     0          1          0      )
                  (    -1         -1          0      )
                  (     0          0          1      )

 cart.    s( 2) = ( -0.5000000 -0.8660254  0.0000000 )
                  (  0.8660254 -0.5000000  0.0000000 )
                  (  0.0000000  0.0000000  1.0000000 )


      isym =  3     120 deg rotation - cryst. axis [0,0,-1]      

 cryst.   s( 3) = (    -1         -1          0      )
                  (     1          0          0      )
                  (     0          0          1      )

 cart.    s( 3) = ( -0.5000000  0.8660254  0.0000000 )
                  ( -0.8660254 -0.5000000  0.0000000 )
                  (  0.0000000  0.0000000  1.0000000 )


      isym =  4     inv. 180 deg rotation - cart. axis [1,0,0]   

 cryst.   s( 4) = (    -1          0          0      )
                  (     1          1          0      )
                  (     0          0          1      )

 cart.    s( 4) = ( -1.0000000  0.0000000  0.0000000 )
                  (  0.0000000  1.0000000  0.0000000 )
                  (  0.0000000  0.0000000  1.0000000 )


      isym =  5     inv. 180 deg rotation - cryst. axis [0,1,0]  

 cryst.   s( 5) = (     1          1          0      )
                  (     0         -1          0      )
                  (     0          0          1      )

 cart.    s( 5) = (  0.5000000  0.8660254  0.0000000 )
                  (  0.8660254 -0.5000000  0.0000000 )
                  (  0.0000000  0.0000000  1.0000000 )


      isym =  6     inv. 180 deg rotation - cryst. axis [1,1,0]  

 cryst.   s( 6) = (     0         -1          0      )
                  (    -1          0          0      )
                  (     0          0          1      )

 cart.    s( 6) = (  0.5000000 -0.8660254  0.0000000 )
                  ( -0.8660254 -0.5000000  0.0000000 )
                  (  0.0000000  0.0000000  1.0000000 )


     point group C_3v (3m)  
     there are  3 classes
     the character table:

       E     2C3   3s_v 
A_1    1.00  1.00  1.00
A_2    1.00  1.00 -1.00
E      2.00 -1.00  0.00

     the symmetry operations in each class and the name of the first element:

     E        1
          identity                                               
     2C3      2    3
          120 deg rotation - cryst. axis [0,0,1]                 
     3s_v     4    5    6
          inv. 180 deg rotation - cart. axis [1,0,0]             

   Cartesian axes

     site n.     atom                  positions (alat units)
         1           S   tau(   1) = (   0.0000000   0.5773503   1.4932768  )
         2           Nb  tau(   2) = (   0.0000000   0.0000000   1.0094618  )
         3           S   tau(   3) = (   0.0000000   0.5773503   0.5321904  )
         4           S   tau(   4) = (   0.5000000   0.2886751   2.5511139  )
         5           Nb  tau(   5) = (   0.0000000   0.0000000   3.0283905  )
         6           S   tau(   6) = (   0.5000000   0.2886751   3.5056620  )

   Crystallographic axes

     site n.     atom                  positions (cryst. coord.)
         1           S   tau(   1) = (  0.3333333  0.6666667  0.2449870  )
         2           Nb  tau(   2) = (  0.0000000  0.0000000  0.1656123  )
         3           S   tau(   3) = (  0.3333333  0.6666667  0.0873112  )
         4           S   tau(   4) = (  0.6666667  0.3333333  0.4185358  )
         5           Nb  tau(   5) = (  0.0000000  0.0000000  0.4968378  )
         6           S   tau(   6) = (  0.6666667  0.3333333  0.5751389  )

     number of k points=    27  Methfessel-Paxton smearing, width (Ry)=  0.0200
                       cart. coord. in units 2pi/alat
        k(    1) = (   0.0000000   0.0000000   0.0000000), wk =   0.0088889
        k(    2) = (   0.0000000   0.0769800   0.0000000), wk =   0.0533333
        k(    3) = (   0.0000000   0.1539601   0.0000000), wk =   0.0533333
        k(    4) = (   0.0000000   0.2309401   0.0000000), wk =   0.0533333
        k(    5) = (   0.0000000   0.3079201   0.0000000), wk =   0.0533333
        k(    6) = (   0.0000000   0.3849002   0.0000000), wk =   0.0533333
        k(    7) = (   0.0000000   0.4618802   0.0000000), wk =   0.0533333
        k(    8) = (   0.0000000   0.5388603   0.0000000), wk =   0.0533333
        k(    9) = (   0.0666667   0.1154701   0.0000000), wk =   0.0533333
        k(   10) = (   0.0666667   0.1924501   0.0000000), wk =   0.1066667
        k(   11) = (   0.0666667   0.2694301   0.0000000), wk =   0.1066667
        k(   12) = (   0.0666667   0.3464102   0.0000000), wk =   0.1066667
        k(   13) = (   0.0666667   0.4233902   0.0000000), wk =   0.1066667
        k(   14) = (   0.0666667   0.5003702   0.0000000), wk =   0.1066667
        k(   15) = (   0.0666667   0.5773503   0.0000000), wk =   0.0533333
        k(   16) = (   0.1333333   0.2309401   0.0000000), wk =   0.0533333
        k(   17) = (   0.1333333   0.3079201   0.0000000), wk =   0.1066667
        k(   18) = (   0.1333333   0.3849002   0.0000000), wk =   0.1066667
        k(   19) = (   0.1333333   0.4618802   0.0000000), wk =   0.1066667
        k(   20) = (   0.1333333   0.5388603   0.0000000), wk =   0.1066667
        k(   21) = (   0.2000000   0.3464102   0.0000000), wk =   0.0533333
        k(   22) = (   0.2000000   0.4233902   0.0000000), wk =   0.1066667
        k(   23) = (   0.2000000   0.5003702   0.0000000), wk =   0.1066667
        k(   24) = (   0.2000000   0.5773503   0.0000000), wk =   0.0533333
        k(   25) = (   0.2666667   0.4618802   0.0000000), wk =   0.0533333
        k(   26) = (   0.2666667   0.5388603   0.0000000), wk =   0.1066667
        k(   27) = (   0.3333333   0.5773503   0.0000000), wk =   0.0177778

                       cryst. coord.
        k(    1) = (   0.0000000   0.0000000   0.0000000), wk =   0.0088889
        k(    2) = (   0.0000000   0.0666667   0.0000000), wk =   0.0533333
        k(    3) = (   0.0000000   0.1333333   0.0000000), wk =   0.0533333
        k(    4) = (   0.0000000   0.2000000   0.0000000), wk =   0.0533333
        k(    5) = (   0.0000000   0.2666667   0.0000000), wk =   0.0533333
        k(    6) = (   0.0000000   0.3333333   0.0000000), wk =   0.0533333
        k(    7) = (   0.0000000   0.4000000   0.0000000), wk =   0.0533333
        k(    8) = (   0.0000000   0.4666667   0.0000000), wk =   0.0533333
        k(    9) = (   0.0666667   0.0666667   0.0000000), wk =   0.0533333
        k(   10) = (   0.0666667   0.1333333   0.0000000), wk =   0.1066667
        k(   11) = (   0.0666667   0.2000000   0.0000000), wk =   0.1066667
        k(   12) = (   0.0666667   0.2666667   0.0000000), wk =   0.1066667
        k(   13) = (   0.0666667   0.3333333   0.0000000), wk =   0.1066667
        k(   14) = (   0.0666667   0.4000000   0.0000000), wk =   0.1066667
        k(   15) = (   0.0666667   0.4666667   0.0000000), wk =   0.0533333
        k(   16) = (   0.1333333   0.1333333   0.0000000), wk =   0.0533333
        k(   17) = (   0.1333333   0.2000000   0.0000000), wk =   0.1066667
        k(   18) = (   0.1333333   0.2666667   0.0000000), wk =   0.1066667
        k(   19) = (   0.1333333   0.3333333   0.0000000), wk =   0.1066667
        k(   20) = (   0.1333333   0.4000000   0.0000000), wk =   0.1066667
        k(   21) = (   0.2000000   0.2000000   0.0000000), wk =   0.0533333
        k(   22) = (   0.2000000   0.2666667   0.0000000), wk =   0.1066667
        k(   23) = (   0.2000000   0.3333333   0.0000000), wk =   0.1066667
        k(   24) = (   0.2000000   0.4000000   0.0000000), wk =   0.0533333
        k(   25) = (   0.2666667   0.2666667   0.0000000), wk =   0.0533333
        k(   26) = (   0.2666667   0.3333333   0.0000000), wk =   0.1066667
        k(   27) = (   0.3333333   0.3333333   0.0000000), wk =   0.0177778

     Dense  grid:   170041 G-vectors     FFT dimensions: (  40,  40, 243)

     Smooth grid:    43005 G-vectors     FFT dimensions: (  25,  25, 160)

     Dynamical RAM for                 wfc:       2.46 MB

     Dynamical RAM for     wfc (w. buffer):      68.91 MB

     Dynamical RAM for           str. fact:       2.59 MB

     Dynamical RAM for           local pot:       0.00 MB

     Dynamical RAM for          nlocal pot:       2.79 MB

     Dynamical RAM for                qrad:       3.21 MB

     Dynamical RAM for          rho,v,vnew:       8.36 MB

     Dynamical RAM for               rhoin:       2.79 MB

     Dynamical RAM for            rho*nmix:      20.76 MB

     Dynamical RAM for           G-vectors:       5.03 MB

     Dynamical RAM for          h,s,v(r/c):       0.66 MB

     Dynamical RAM for          <psi|beta>:       0.06 MB

     Dynamical RAM for                 psi:       4.92 MB

     Dynamical RAM for                hpsi:       4.92 MB

     Dynamical RAM for                spsi:       4.92 MB

     Dynamical RAM for      wfcinit/wfcrot:       5.00 MB

     Dynamical RAM for           addusdens:     246.48 MB

     Estimated static dynamical RAM per process >     125.77 MB

     Estimated max dynamical RAM per process >     372.25 MB

     Estimated total dynamical RAM >     744.51 MB

     Initial potential from superposition of free atoms

     starting charge   49.99775, renormalised to   50.00000

     negative rho (up, down):  7.872E-05 0.000E+00
     Starting wfcs are   42 randomized atomic wfcs +   18 random wfcs
     Checking if some PAW data can be deallocated... 

     total cpu time spent up to now is        9.5 secs

     Self-consistent Calculation

     iteration #  1     ecut=    40.00 Ry     beta= 0.70
     Davidson diagonalization with overlap
     ethr =  1.00E-02,  avg # of iterations =  8.0

     Threshold (ethr) on eigenvalues was too large:
     Diagonalizing with lowered threshold

     Davidson diagonalization with overlap
     ethr =  5.35E-04,  avg # of iterations =  2.1

     negative rho (up, down):  1.254E-04 0.000E+00

     total cpu time spent up to now is       79.8 secs

     total energy              =    -907.81146700 Ry
     estimated scf accuracy    <       0.26868716 Ry

     iteration #  2     ecut=    40.00 Ry     beta= 0.70
     Davidson diagonalization with overlap
     ethr =  5.37E-04,  avg # of iterations =  6.2

     negative rho (up, down):  1.427E-04 0.000E+00

     total cpu time spent up to now is      113.0 secs

     total energy              =    -907.49701185 Ry
     estimated scf accuracy    <       2.98515567 Ry

     iteration #  3     ecut=    40.00 Ry     beta= 0.70
     Davidson diagonalization with overlap
     ethr =  5.37E-04,  avg # of iterations =  7.5

     negative rho (up, down):  1.217E-04 0.000E+00

     total cpu time spent up to now is      143.8 secs

     total energy              =    -906.81365390 Ry
     estimated scf accuracy    <      40.66144863 Ry

     iteration #  4     ecut=    40.00 Ry     beta= 0.70
     Davidson diagonalization with overlap
     ethr =  5.37E-04,  avg # of iterations =  7.0

     negative rho (up, down):  1.218E-04 0.000E+00

     total cpu time spent up to now is      174.8 secs

     total energy              =    -907.89506954 Ry
     estimated scf accuracy    <       0.13856626 Ry

     iteration #  5     ecut=    40.00 Ry     beta= 0.70
     Davidson diagonalization with overlap
     ethr =  2.77E-04,  avg # of iterations =  2.0

     negative rho (up, down):  1.241E-04 0.000E+00

     total cpu time spent up to now is      197.9 secs

     total energy              =    -907.90736981 Ry
     estimated scf accuracy    <       0.10824758 Ry

     iteration #  6     ecut=    40.00 Ry     beta= 0.70
     Davidson diagonalization with overlap
     ethr =  2.16E-04,  avg # of iterations =  1.4

     negative rho (up, down):  1.257E-04 0.000E+00

     total cpu time spent up to now is      218.1 secs

     total energy              =    -907.90751148 Ry
     estimated scf accuracy    <       0.06098892 Ry

     iteration #  7     ecut=    40.00 Ry     beta= 0.70
     Davidson diagonalization with overlap
     ethr =  1.22E-04,  avg # of iterations =  1.7

     negative rho (up, down):  1.276E-04 0.000E+00

     total cpu time spent up to now is      240.0 secs

     total energy              =    -907.91060721 Ry
     estimated scf accuracy    <       0.01354159 Ry

     iteration #  8     ecut=    40.00 Ry     beta= 0.70
     Davidson diagonalization with overlap
     ethr =  2.71E-05,  avg # of iterations =  4.0

     negative rho (up, down):  1.292E-04 0.000E+00

     total cpu time spent up to now is      262.9 secs

     total energy              =    -907.91124240 Ry
     estimated scf accuracy    <       0.00149751 Ry

     iteration #  9     ecut=    40.00 Ry     beta= 0.70
     Davidson diagonalization with overlap
     ethr =  3.00E-06,  avg # of iterations =  8.3

     negative rho (up, down):  1.316E-04 0.000E+00

     total cpu time spent up to now is      289.8 secs

     total energy              =    -907.91126177 Ry
     estimated scf accuracy    <       0.00391475 Ry

     iteration # 10     ecut=    40.00 Ry     beta= 0.70
     Davidson diagonalization with overlap
     ethr =  3.00E-06,  avg # of iterations =  1.0

     negative rho (up, down):  1.317E-04 0.000E+00

     total cpu time spent up to now is      309.2 secs

     total energy              =    -907.91145633 Ry
     estimated scf accuracy    <       0.00176025 Ry

     iteration # 11     ecut=    40.00 Ry     beta= 0.70
     Davidson diagonalization with overlap
     ethr =  3.00E-06,  avg # of iterations =  1.0

     negative rho (up, down):  1.320E-04 0.000E+00

     total cpu time spent up to now is      329.6 secs

     total energy              =    -907.91148991 Ry
     estimated scf accuracy    <       0.00008327 Ry

     iteration # 12     ecut=    40.00 Ry     beta= 0.70
     Davidson diagonalization with overlap
     ethr =  1.67E-07,  avg # of iterations =  1.0

     negative rho (up, down):  1.321E-04 0.000E+00

     total cpu time spent up to now is      352.2 secs

     total energy              =    -907.91149118 Ry
     estimated scf accuracy    <       0.00000078 Ry

     iteration # 13     ecut=    40.00 Ry     beta= 0.70
     Davidson diagonalization with overlap
     ethr =  1.55E-09,  avg # of iterations =  1.0

     negative rho (up, down):  1.321E-04 0.000E+00

     total cpu time spent up to now is      372.8 secs

     total energy              =    -907.91149121 Ry
     estimated scf accuracy    <       0.00000002 Ry

     iteration # 14     ecut=    40.00 Ry     beta= 0.70
     Davidson diagonalization with overlap
     ethr =  3.38E-11,  avg # of iterations =  2.7

     negative rho (up, down):  1.321E-04 0.000E+00

     total cpu time spent up to now is      399.8 secs

     End of self-consistent calculation

          k = 0.0000 0.0000 0.0000 (  5429 PWs)   bands (ev):

   -51.4505 -51.4368 -27.6631 -27.6560 -27.4327 -27.4327 -27.4233 -27.4233
   -10.3512 -10.2864  -9.0611  -8.9610  -2.1131  -1.8089   0.9722   0.9722
     1.0228   1.0228   1.3931   2.0767   2.0767   2.1167   2.1167   2.1291
     3.8434   4.2769   6.3256   6.3256   6.3686   6.3686   6.5028   6.5028
     6.5369   6.5369   8.5507   8.7283   9.0065   9.6094  11.3532  11.5627
    11.6238  11.9812  13.8543  13.8543  13.8796  13.8796  14.0208  15.7614
    15.7996  15.7996  16.0490  16.0490  16.1263  17.1021  18.0536  18.5255
    18.6687  18.6688  18.8018  19.1718

     occupation numbers 
     1.0000   1.0000   1.0000   1.0000   1.0000   1.0000   1.0000   1.0000
     1.0000   1.0000   1.0000   1.0000   1.0000   1.0000   1.0000   1.0000
     1.0000   1.0000   1.0000   1.0000   1.0000   1.0000   1.0000   1.0000
    -0.0024  -0.0000  -0.0000  -0.0000  -0.0000  -0.0000  -0.0000  -0.0000
    -0.0000  -0.0000  -0.0000  -0.0000  -0.0000  -0.0000  -0.0000  -0.0000
    -0.0000  -0.0000  -0.0000  -0.0000  -0.0000  -0.0000  -0.0000  -0.0000
    -0.0000  -0.0000  -0.0000  -0.0000  -0.0000  -0.0000  -0.0000  -0.0000
    -0.0000  -0.0000  -0.0000  -0.0000

          k = 0.0000 0.0770 0.0000 (  5395 PWs)   bands (ev):

   -51.4485 -51.4349 -27.6588 -27.6517 -27.4527 -27.4435 -27.4371 -27.4278
   -10.2898 -10.2254  -9.0408  -8.9429  -2.0397  -1.7359   0.8085   0.8571
     1.0345   1.0844   1.1989   1.6504   1.9708   2.0116   2.1845   2.4454
     3.8167   4.1931   6.2727   6.3018   6.3554   6.4064   6.4216   6.4818
     6.4909   6.5038   8.7781   9.0181   9.1888   9.7282  11.4588  11.7401
    11.9280  12.1509  13.5372  13.7051  14.0384  14.0775  14.1787  15.2354
    15.5054  15.7768  15.8634  16.0574  16.1298  17.1205  17.9144  18.4432
    18.6955  18.9017  19.0709  19.1215

     occupation numbers 
     1.0000   1.0000   1.0000   1.0000   1.0000   1.0000   1.0000   1.0000
     1.0000   1.0000   1.0000   1.0000   1.0000   1.0000   1.0000   1.0000
     1.0000   1.0000   1.0000   1.0000   1.0000   1.0000   1.0000   1.0003
    -0.0035  -0.0000  -0.0000  -0.0000  -0.0000  -0.0000  -0.0000  -0.0000
    -0.0000  -0.0000  -0.0000  -0.0000  -0.0000  -0.0000  -0.0000  -0.0000
    -0.0000  -0.0000  -0.0000  -0.0000  -0.0000  -0.0000  -0.0000  -0.0000
    -0.0000  -0.0000  -0.0000  -0.0000  -0.0000  -0.0000  -0.0000  -0.0000
    -0.0000  -0.0000  -0.0000  -0.0000

          k = 0.0000 0.1540 0.0000 (  5375 PWs)   bands (ev):

   -51.4430 -51.4293 -27.6470 -27.6397 -27.5090 -27.5003 -27.4495 -27.4403
   -10.1128 -10.0496  -8.9823  -8.8907  -1.8383  -1.5374   0.4022   0.4455
     0.8049   1.1319   1.2112   1.2581   1.7024   1.7461   2.2310   2.5657
     3.6923   3.9276   5.9981   6.2093   6.2459   6.2971   6.3546   6.3620
     6.7914   6.8285   9.1413   9.6237   9.8498  10.1809  11.7170  11.9392
    12.6488  12.7348  13.0632  13.3098  14.2328  14.4535  14.5580  14.6246
    14.7500  15.7431  15.7721  15.9564  16.1175  17.1338  17.2738  18.1270
    18.2085  18.4745  18.7469  19.0169

     occupation numbers 
     1.0000   1.0000   1.0000   1.0000   1.0000   1.0000   1.0000   1.0000
     1.0000   1.0000   1.0000   1.0000   1.0000   1.0000   1.0000   1.0000
     1.0000   1.0000   1.0000   1.0000   1.0000   1.0000   1.0000   1.0021
    -0.0153  -0.0006  -0.0000  -0.0000  -0.0000  -0.0000  -0.0000  -0.0000
    -0.0000  -0.0000  -0.0000  -0.0000  -0.0000  -0.0000  -0.0000  -0.0000
    -0.0000  -0.0000  -0.0000  -0.0000  -0.0000  -0.0000  -0.0000  -0.0000
    -0.0000  -0.0000  -0.0000  -0.0000  -0.0000  -0.0000  -0.0000  -0.0000
    -0.0000  -0.0000  -0.0000  -0.0000

          k = 0.0000 0.2309 0.0000 (  5379 PWs)   bands (ev):

   -51.4349 -51.4212 -27.6295 -27.6220 -27.5909 -27.5829 -27.4679 -27.4587
    -9.8408  -9.7802  -8.8925  -8.8108  -1.5816  -1.2979  -0.0629  -0.0289
     0.3514   0.5925   1.3650   1.3919   1.4720   1.5350   2.1147   2.4697
     3.4017   3.5191   5.8136   6.1595   6.1692   6.2167   6.3714   6.5692
     7.1852   7.2365   9.5392  10.0748  10.6187  11.0770  11.9931  12.1545
    12.6448  12.8229  12.8499  13.1660  14.1286  14.3786  14.8497  15.2705
    15.2881  15.3987  15.6765  15.8916  16.3063  16.6666  16.9302  17.4590
    17.6036  18.0582  18.1936  18.9427

     occupation numbers 
     1.0000   1.0000   1.0000   1.0000   1.0000   1.0000   1.0000   1.0000
     1.0000   1.0000   1.0000   1.0000   1.0000   1.0000   1.0000   1.0000
     1.0000   1.0000   1.0000   1.0000   1.0000   1.0000   1.0000   1.0004
     0.0365  -0.0343  -0.0000  -0.0000  -0.0000  -0.0000  -0.0000  -0.0000
    -0.0000  -0.0000  -0.0000  -0.0000  -0.0000  -0.0000  -0.0000  -0.0000
    -0.0000  -0.0000  -0.0000  -0.0000  -0.0000  -0.0000  -0.0000  -0.0000
    -0.0000  -0.0000  -0.0000  -0.0000  -0.0000  -0.0000  -0.0000  -0.0000
    -0.0000  -0.0000  -0.0000  -0.0000

          k = 0.0000 0.3079 0.0000 (  5363 PWs)   bands (ev):

   -51.4256 -51.4118 -27.6837 -27.6764 -27.6092 -27.6015 -27.4888 -27.4798
    -9.5082  -9.4520  -8.7831  -8.7141  -1.4559  -1.2511  -0.3713  -0.3150
    -0.1050   0.0699   1.0365   1.0761   1.7636   1.8125   1.9118   2.2716
     3.0366   3.1214   5.8803   6.0905   6.1416   6.2678   6.6673   6.9144
     7.5462   7.6170  10.0015  10.4463  10.8972  11.5819  11.7462  12.1914
    12.2755  12.5965  13.0758  13.2024  14.2752  14.8993  14.9425  15.2867
    15.5604  15.6950  15.9094  16.2663  16.5616  16.6693  16.6961  17.1666
    17.3801  17.6177  17.9396  18.9855

     occupation numbers 
     1.0000   1.0000   1.0000   1.0000   1.0000   1.0000   1.0000   1.0000
     1.0000   1.0000   1.0000   1.0000   1.0000   1.0000   1.0000   1.0000
     1.0000   1.0000   1.0000   1.0000   1.0000   1.0000   1.0000   1.0000
     0.9336   0.7559  -0.0000  -0.0000  -0.0000  -0.0000  -0.0000  -0.0000
    -0.0000  -0.0000  -0.0000  -0.0000  -0.0000  -0.0000  -0.0000  -0.0000
    -0.0000  -0.0000  -0.0000  -0.0000  -0.0000  -0.0000  -0.0000  -0.0000
    -0.0000  -0.0000  -0.0000  -0.0000  -0.0000  -0.0000  -0.0000  -0.0000
    -0.0000  -0.0000  -0.0000  -0.0000

          k = 0.0000 0.3849 0.0000 (  5379 PWs)   bands (ev):

   -51.4166 -51.4028 -27.7709 -27.7644 -27.5898 -27.5819 -27.5087 -27.4999
    -9.1636  -9.1144  -8.6711  -8.6161  -1.6264  -1.5201  -0.5924  -0.4482
    -0.3490  -0.2739   0.7617   0.8031   1.7271   2.0257   2.0729   2.0836
     2.8324   2.9206   6.1243   6.1321   6.1704   6.4534   6.9930   7.2508
     7.8158   7.9085  10.4021  10.7258  10.8520  11.0218  11.2985  11.8563
    11.9451  12.7992  13.1350  13.8861  14.1111  14.8249  15.0224  15.1161
    15.3772  15.4825  16.1499  16.7577  16.8127  17.0672  17.3550  17.4372
    17.9844  18.0729  18.1490  18.1796

     occupation numbers 
     1.0000   1.0000   1.0000   1.0000   1.0000   1.0000   1.0000   1.0000
     1.0000   1.0000   1.0000   1.0000   1.0000   1.0000   1.0000   1.0000
     1.0000   1.0000   1.0000   1.0000   1.0000   1.0000   1.0000   1.0000
     1.0324   1.0301  -0.0000  -0.0000  -0.0000  -0.0000  -0.0000  -0.0000
    -0.0000  -0.0000  -0.0000  -0.0000  -0.0000  -0.0000  -0.0000  -0.0000
    -0.0000  -0.0000  -0.0000  -0.0000  -0.0000  -0.0000  -0.0000  -0.0000
    -0.0000  -0.0000  -0.0000  -0.0000  -0.0000  -0.0000  -0.0000  -0.0000
    -0.0000  -0.0000  -0.0000  -0.0000

          k = 0.0000 0.4619 0.0000 (  5375 PWs)   bands (ev):

   -51.4096 -51.3958 -27.8382 -27.8322 -27.5746 -27.5665 -27.5243 -27.5155
    -8.8699  -8.8303  -8.5770  -8.5355  -1.8866  -1.8252  -0.9102  -0.7776
    -0.3706  -0.3218   0.5670   0.6093   1.6074   1.9567   2.2098   2.2587
     2.8768   2.9853   6.2598   6.2827   6.4463   6.6664   7.2101   7.4779
     7.9824   8.0940  10.0085  10.2876  10.9310  10.9952  11.1729  11.6723
    12.0204  12.8694  13.2793  13.6547  13.8434  14.3399  14.4245  14.8077
    15.2125  15.6189  16.3208  17.0293  17.1279  17.4041  17.6100  18.1128
    18.1541  18.6410  18.9784  19.0865

     occupation numbers 
     1.0000   1.0000   1.0000   1.0000   1.0000   1.0000   1.0000   1.0000
     1.0000   1.0000   1.0000   1.0000   1.0000   1.0000   1.0000   1.0000
     1.0000   1.0000   1.0000   1.0000   1.0000   1.0000   1.0000   1.0000
     1.0355   0.9950  -0.0000  -0.0000  -0.0000  -0.0000  -0.0000  -0.0000
    -0.0000  -0.0000  -0.0000  -0.0000  -0.0000  -0.0000  -0.0000  -0.0000
    -0.0000  -0.0000  -0.0000  -0.0000  -0.0000  -0.0000  -0.0000  -0.0000
    -0.0000  -0.0000  -0.0000  -0.0000  -0.0000  -0.0000  -0.0000  -0.0000
    -0.0000  -0.0000  -0.0000  -0.0000

          k = 0.0000 0.5389 0.0000 (  5374 PWs)   bands (ev):

   -51.4058 -51.3919 -27.8747 -27.8690 -27.5662 -27.5580 -27.5327 -27.5240
    -8.6972  -8.6661  -8.5221  -8.4897  -2.0497  -2.0076  -1.0915  -0.9664
    -0.4103  -0.3815   0.4667   0.5092   1.5531   1.8964   2.2999   2.3511
     3.0126   3.1252   6.3752   6.3875   6.7372   6.8181   7.2784   7.5790
     8.0588   8.1813   9.3751   9.8766  11.0183  11.0758  11.3841  11.6372
    12.3316  12.7166  13.2418  13.4732  13.6892  14.0008  14.1857  14.3806
    15.0231  15.1846  16.3213  16.9123  17.5600  17.7951  17.8285  18.5346
    18.7236  19.0018  19.6357  19.8913

     occupation numbers 
     1.0000   1.0000   1.0000   1.0000   1.0000   1.0000   1.0000   1.0000
     1.0000   1.0000   1.0000   1.0000   1.0000   1.0000   1.0000   1.0000
     1.0000   1.0000   1.0000   1.0000   1.0000   1.0000   1.0000   1.0000
     0.9665   0.7459  -0.0000  -0.0000  -0.0000  -0.0000  -0.0000  -0.0000
    -0.0000  -0.0000  -0.0000  -0.0000  -0.0000  -0.0000  -0.0000  -0.0000
    -0.0000  -0.0000  -0.0000  -0.0000  -0.0000  -0.0000  -0.0000  -0.0000
    -0.0000  -0.0000  -0.0000  -0.0000  -0.0000  -0.0000  -0.0000  -0.0000
    -0.0000  -0.0000  -0.0000  -0.0000

          k = 0.0667 0.1155 0.0000 (  5375 PWs)   bands (ev):

   -51.4448 -51.4311 -27.6508 -27.6436 -27.4902 -27.4813 -27.4462 -27.4369
   -10.1706 -10.1070  -9.0014  -8.9077  -1.9015  -1.5992   0.5275   0.5725
     0.9315   1.1508   1.1979   1.2969   1.7337   1.7731   2.2818   2.5895
     3.7417   4.0174   6.0885   6.2184   6.2321   6.2889   6.3473   6.4063
     6.7153   6.7538   9.0475   9.4719   9.6383  10.0082  11.6404  11.9016
    12.4415  12.5706  13.1859  13.4641  14.1915  14.3817  14.4894  14.6173
    14.9049  15.6283  15.9025  15.9571  16.0888  17.1826  17.6552  18.2266
    18.3311  18.6647  18.7171  19.0649

     occupation numbers 
     1.0000   1.0000   1.0000   1.0000   1.0000   1.0000   1.0000   1.0000
     1.0000   1.0000   1.0000   1.0000   1.0000   1.0000   1.0000   1.0000
     1.0000   1.0000   1.0000   1.0000   1.0000   1.0000   1.0000   1.0030
    -0.0091  -0.0001  -0.0000  -0.0000  -0.0000  -0.0000  -0.0000  -0.0000
    -0.0000  -0.0000  -0.0000  -0.0000  -0.0000  -0.0000  -0.0000  -0.0000
    -0.0000  -0.0000  -0.0000  -0.0000  -0.0000  -0.0000  -0.0000  -0.0000
    -0.0000  -0.0000  -0.0000  -0.0000  -0.0000  -0.0000  -0.0000  -0.0000
    -0.0000  -0.0000  -0.0000  -0.0000

          k = 0.0667 0.1925 0.0000 (  5363 PWs)   bands (ev):

   -51.4380 -51.4243 -27.6361 -27.6287 -27.5575 -27.5493 -27.4633 -27.4542
    -9.9459  -9.8842  -8.9270  -8.8414  -1.6653  -1.3707   0.1015   0.1396
     0.5601   0.8397   1.3379   1.3537   1.3594   1.4352   2.3032   2.6160
     3.5335   3.6748   5.8382   6.0922   6.1984   6.2429   6.2703   6.4095
     7.1069   7.1588   9.3983   9.9516  10.4345  10.7583  11.9465  12.0415
    12.7422  13.0517  13.0744  13.1466  14.0764  14.1619  14.5698  14.8832
    14.9897  15.4977  15.6445  15.9103  16.0737  17.1004  17.2981  17.4887
    17.8158  18.1715  18.4334  19.2752

     occupation numbers 
     1.0000   1.0000   1.0000   1.0000   1.0000   1.0000   1.0000   1.0000
     1.0000   1.0000   1.0000   1.0000   1.0000   1.0000   1.0000   1.0000
     1.0000   1.0000   1.0000   1.0000   1.0000   1.0000   1.0000   1.0043
    -0.0353  -0.0179  -0.0000  -0.0000  -0.0000  -0.0000  -0.0000  -0.0000
    -0.0000  -0.0000  -0.0000  -0.0000  -0.0000  -0.0000  -0.0000  -0.0000
    -0.0000  -0.0000  -0.0000  -0.0000  -0.0000  -0.0000  -0.0000  -0.0000
    -0.0000  -0.0000  -0.0000  -0.0000  -0.0000  -0.0000  -0.0000  -0.0000
    -0.0000  -0.0000  -0.0000  -0.0000

          k = 0.0667 0.2694 0.0000 (  5375 PWs)   bands (ev):

   -51.4293 -51.4155 -27.6426 -27.6350 -27.6172 -27.6096 -27.4853 -27.4763
    -9.6429  -9.5846  -8.8267  -8.7524  -1.4511  -1.1990  -0.2699  -0.2391
     0.1277   0.3223   0.9698   1.0356   1.5911   1.6387   2.1716   2.4761
     3.2006   3.2725   5.7504   6.0093   6.1709   6.3071   6.4374   6.6399
     7.5069   7.5658   9.8351  10.3474  10.9959  11.6200  11.9801  12.4286
    12.4509  12.6754  12.7940  13.1599  14.2929  14.5605  14.8945  14.9227
    15.1406  15.6155  15.7072  16.1197  16.1493  16.5034  16.8416  17.3236
    17.5856  17.8100  18.2880  19.2725

     occupation numbers 
     1.0000   1.0000   1.0000   1.0000   1.0000   1.0000   1.0000   1.0000
     1.0000   1.0000   1.0000   1.0000   1.0000   1.0000   1.0000   1.0000
     1.0000   1.0000   1.0000   1.0000   1.0000   1.0000   1.0000   1.0005
     0.5243   0.3065  -0.0000  -0.0000  -0.0000  -0.0000  -0.0000  -0.0000
    -0.0000  -0.0000  -0.0000  -0.0000  -0.0000  -0.0000  -0.0000  -0.0000
    -0.0000  -0.0000  -0.0000  -0.0000  -0.0000  -0.0000  -0.0000  -0.0000
    -0.0000  -0.0000  -0.0000  -0.0000  -0.0000  -0.0000  -0.0000  -0.0000
    -0.0000  -0.0000  -0.0000  -0.0000

          k = 0.0667 0.3464 0.0000 (  5373 PWs)   bands (ev):

   -51.4201 -51.4063 -27.7301 -27.7232 -27.5974 -27.5896 -27.5082 -27.4993
    -9.3025  -9.2500  -8.7146  -8.6537  -1.4820  -1.3372  -0.4434  -0.3408
    -0.2843  -0.1763   0.7079   0.7840   1.7840   1.8291   1.9605   2.2620
     2.9374   3.0020   5.8437   6.0437   6.2652   6.4294   6.7598   6.9836
     7.8172   7.8704  10.3172  10.7018  11.0603  11.3793  11.6732  12.0698
    12.1714  12.7913  13.1244  13.6005  14.2471  14.7398  14.9704  15.0390
    15.2571  15.5358  15.6800  16.1636  16.2512  16.9457  17.1382  17.6475
    17.7945  18.0521  18.2716  18.4067

     occupation numbers 
     1.0000   1.0000   1.0000   1.0000   1.0000   1.0000   1.0000   1.0000
     1.0000   1.0000   1.0000   1.0000   1.0000   1.0000   1.0000   1.0000
     1.0000   1.0000   1.0000   1.0000   1.0000   1.0000   1.0000   1.0000
     1.0247   0.9786  -0.0000  -0.0000  -0.0000  -0.0000  -0.0000  -0.0000
    -0.0000  -0.0000  -0.0000  -0.0000  -0.0000  -0.0000  -0.0000  -0.0000
    -0.0000  -0.0000  -0.0000  -0.0000  -0.0000  -0.0000  -0.0000  -0.0000
    -0.0000  -0.0000  -0.0000  -0.0000  -0.0000  -0.0000  -0.0000  -0.0000
    -0.0000  -0.0000  -0.0000  -0.0000

          k = 0.0667 0.4234 0.0000 (  5379 PWs)   bands (ev):

   -51.4122 -51.3983 -27.8052 -27.7989 -27.5801 -27.5720 -27.5280 -27.5193
    -8.9801  -8.9361  -8.6095  -8.5624  -1.7187  -1.6406  -0.7846  -0.6625
    -0.3378  -0.2762   0.5517   0.6173   1.7504   1.9149   1.9518   2.0696
     2.9164   2.9960   6.0635   6.1946   6.4508   6.5898   7.0889   7.3096
     7.9714   8.0233  10.4889  10.5852  10.9577  11.1642  11.2363  11.8404
    12.0563  12.9341  13.2189  13.9378  13.9571  14.1116  14.6550  14.9477
    15.3500  15.5412  16.3042  16.5830  16.8115  17.0463  17.5041  17.6559
    18.1036  18.2931  18.6668  18.8570

     occupation numbers 
     1.0000   1.0000   1.0000   1.0000   1.0000   1.0000   1.0000   1.0000
     1.0000   1.0000   1.0000   1.0000   1.0000   1.0000   1.0000   1.0000
     1.0000   1.0000   1.0000   1.0000   1.0000   1.0000   1.0000   1.0000
     1.0311   0.9849  -0.0000  -0.0000  -0.0000  -0.0000  -0.0000  -0.0000
    -0.0000  -0.0000  -0.0000  -0.0000  -0.0000  -0.0000  -0.0000  -0.0000
    -0.0000  -0.0000  -0.0000  -0.0000  -0.0000  -0.0000  -0.0000  -0.0000
    -0.0000  -0.0000  -0.0000  -0.0000  -0.0000  -0.0000  -0.0000  -0.0000
    -0.0000  -0.0000  -0.0000  -0.0000

          k = 0.0667 0.5004 0.0000 (  5386 PWs)   bands (ev):

   -51.4067 -51.3929 -27.8557 -27.8498 -27.5683 -27.5601 -27.5415 -27.5328
    -8.7430  -8.7087  -8.5328  -8.4975  -1.9276  -1.8801  -1.0629  -0.9513
    -0.3695  -0.3373   0.4722   0.5228   1.6161   1.9304   1.9985   2.0524
     3.0562   3.1533   6.2843   6.3427   6.6791   6.7742   7.3220   7.5538
     7.9553   8.0535   9.6941  10.1807  11.1621  11.2650  11.4364  11.8091
    12.2215  12.9053  13.2905  13.5023  13.6435  13.8322  14.2493  14.5446
    15.3416  15.4690  16.2054  16.8293  17.2521  17.5558  17.8554  17.9648
    18.2896  18.8817  19.0219  19.3719

     occupation numbers 
     1.0000   1.0000   1.0000   1.0000   1.0000   1.0000   1.0000   1.0000
     1.0000   1.0000   1.0000   1.0000   1.0000   1.0000   1.0000   1.0000
     1.0000   1.0000   1.0000   1.0000   1.0000   1.0000   1.0000   1.0000
     0.9008   0.6676  -0.0000  -0.0000  -0.0000  -0.0000  -0.0000  -0.0000
    -0.0000  -0.0000  -0.0000  -0.0000  -0.0000  -0.0000  -0.0000  -0.0000
    -0.0000  -0.0000  -0.0000  -0.0000  -0.0000  -0.0000  -0.0000  -0.0000
    -0.0000  -0.0000  -0.0000  -0.0000  -0.0000  -0.0000  -0.0000  -0.0000
    -0.0000  -0.0000  -0.0000  -0.0000

          k = 0.0667 0.5774 0.0000 (  5384 PWs)   bands (ev):

   -51.4048 -51.3909 -27.8734 -27.8677 -27.5641 -27.5558 -27.5462 -27.5376
    -8.6546  -8.6255  -8.5041  -8.4738  -2.0058  -1.9693  -1.1622  -1.0533
    -0.3983  -0.3756   0.4484   0.4922   1.5690   1.8881   2.0317   2.0856
     3.1435   3.2455   6.3634   6.3883   6.8336   6.8705   7.3971   7.6719
     7.8967   8.0414   9.3474   9.9235  11.2905  11.3273  11.6682  11.7695
    12.5277  12.6117  12.9970  13.4652  13.6795  13.8241  14.2287  14.2344
    15.0516  15.2471  16.3696  16.8087  17.5434  17.6342  17.7218  18.3798
    18.6822  18.9535  19.4423  19.5807

     occupation numbers 
     1.0000   1.0000   1.0000   1.0000   1.0000   1.0000   1.0000   1.0000
     1.0000   1.0000   1.0000   1.0000   1.0000   1.0000   1.0000   1.0000
     1.0000   1.0000   1.0000   1.0000   1.0000   1.0000   1.0000   1.0000
     0.6957   0.3858  -0.0000  -0.0000  -0.0000  -0.0000  -0.0000  -0.0000
    -0.0000  -0.0000  -0.0000  -0.0000  -0.0000  -0.0000  -0.0000  -0.0000
    -0.0000  -0.0000  -0.0000  -0.0000  -0.0000  -0.0000  -0.0000  -0.0000
    -0.0000  -0.0000  -0.0000  -0.0000  -0.0000  -0.0000  -0.0000  -0.0000
    -0.0000  -0.0000  -0.0000  -0.0000

          k = 0.1333 0.2309 0.0000 (  5370 PWs)   bands (ev):

   -51.4306 -51.4168 -27.6250 -27.6199 -27.6171 -27.6125 -27.4872 -27.4782
    -9.6896  -9.6307  -8.8417  -8.7655  -1.4521  -1.1833  -0.2189  -0.1901
     0.2889   0.4882   0.8274   0.8796   1.5027   1.5484   2.3509   2.6202
     3.2791   3.3303   5.6918   5.9383   6.1821   6.2957   6.3184   6.5085
     7.5296   7.5942   9.7836  10.3300  11.1317  11.6400  12.0696  12.4122
    12.4321  12.7798  13.0946  13.1514  14.1249  14.4563  14.5342  14.7182
    14.8440  15.4437  15.6775  16.0173  16.2448  16.5280  16.5999  17.6415
    17.7339  18.1248  18.3028  19.4972

     occupation numbers 
     1.0000   1.0000   1.0000   1.0000   1.0000   1.0000   1.0000   1.0000
     1.0000   1.0000   1.0000   1.0000   1.0000   1.0000   1.0000   1.0000
     1.0000   1.0000   1.0000   1.0000   1.0000   1.0000   1.0000   1.0046
     0.2882   0.1599  -0.0000  -0.0000  -0.0000  -0.0000  -0.0000  -0.0000
    -0.0000  -0.0000  -0.0000  -0.0000  -0.0000  -0.0000  -0.0000  -0.0000
    -0.0000  -0.0000  -0.0000  -0.0000  -0.0000  -0.0000  -0.0000  -0.0000
    -0.0000  -0.0000  -0.0000  -0.0000  -0.0000  -0.0000  -0.0000  -0.0000
    -0.0000  -0.0000  -0.0000  -0.0000

          k = 0.1333 0.3079 0.0000 (  5375 PWs)   bands (ev):

   -51.4221 -51.4083 -27.6995 -27.6924 -27.6015 -27.5938 -27.5163 -27.5075
    -9.3768  -9.3227  -8.7369  -8.6727  -1.3718  -1.1902  -0.3811  -0.3064
    -0.1163  -0.0256   0.4839   0.6191   1.5524   1.5926   2.2429   2.4776
     3.0418   3.0656   5.6632   5.9307   6.3186   6.4463   6.5237   6.7135
     7.8874   7.9464  10.2630  10.7276  11.3881  11.7840  12.0813  12.2991
    12.6565  12.7833  13.0919  13.2132  14.2367  14.5471  14.7132  14.8088
    14.8653  14.9907  15.2557  15.8577  16.0837  16.9110  16.9354  17.6798
    17.9679  18.2229  18.4236  19.3201

     occupation numbers 
     1.0000   1.0000   1.0000   1.0000   1.0000   1.0000   1.0000   1.0000
     1.0000   1.0000   1.0000   1.0000   1.0000   1.0000   1.0000   1.0000
     1.0000   1.0000   1.0000   1.0000   1.0000   1.0000   1.0000   1.0005
     0.9254   0.8834  -0.0000  -0.0000  -0.0000  -0.0000  -0.0000  -0.0000
    -0.0000  -0.0000  -0.0000  -0.0000  -0.0000  -0.0000  -0.0000  -0.0000
    -0.0000  -0.0000  -0.0000  -0.0000  -0.0000  -0.0000  -0.0000  -0.0000
    -0.0000  -0.0000  -0.0000  -0.0000  -0.0000  -0.0000  -0.0000  -0.0000
    -0.0000  -0.0000  -0.0000  -0.0000

          k = 0.1333 0.3849 0.0000 (  5386 PWs)   bands (ev):

   -51.4139 -51.4000 -27.7693 -27.7628 -27.5838 -27.5758 -27.5446 -27.5360
    -9.0543  -9.0075  -8.6286  -8.5777  -1.5153  -1.4145  -0.6571  -0.5770
    -0.2937  -0.2141   0.3889   0.5263   1.4845   1.5249   2.0213   2.2457
     2.9846   3.0301   5.8269   6.1119   6.5211   6.5845   6.8277   7.0160
     8.0732   8.1313  10.7211  11.0475  11.1157  11.3563  11.6933  12.1771
    12.3621  13.1179  13.2480  13.6883  14.0757  14.1579  14.4219  14.9913
    15.1433  15.3566  15.4301  15.9416  16.2314  17.2583  17.3968  17.4849
    17.9407  18.2933  18.5745  18.8898

     occupation numbers 
     1.0000   1.0000   1.0000   1.0000   1.0000   1.0000   1.0000   1.0000
     1.0000   1.0000   1.0000   1.0000   1.0000   1.0000   1.0000   1.0000
     1.0000   1.0000   1.0000   1.0000   1.0000   1.0000   1.0000   1.0000
     0.9956   0.9432  -0.0000  -0.0000  -0.0000  -0.0000  -0.0000  -0.0000
    -0.0000  -0.0000  -0.0000  -0.0000  -0.0000  -0.0000  -0.0000  -0.0000
    -0.0000  -0.0000  -0.0000  -0.0000  -0.0000  -0.0000  -0.0000  -0.0000
    -0.0000  -0.0000  -0.0000  -0.0000  -0.0000  -0.0000  -0.0000  -0.0000
    -0.0000  -0.0000  -0.0000  -0.0000

          k = 0.1333 0.4619 0.0000 (  5374 PWs)   bands (ev):

   -51.4075 -51.3936 -27.8230 -27.8169 -27.5699 -27.5669 -27.5617 -27.5584
    -8.7816  -8.7442  -8.5368  -8.4986  -1.6981  -1.6388  -1.0512  -0.9755
    -0.2861  -0.2402   0.4022   0.5088   1.4312   1.4874   1.7817   2.0184
     3.1159   3.1805   6.0897   6.2904   6.7061   6.7503   7.1633   7.3270
     8.0173   8.1525  10.1904  10.6946  11.3756  11.5359  11.6696  12.0859
    12.4187  13.0137  13.2731  13.4493  13.7612  14.0041  14.1618  14.8972
    15.4485  15.5941  16.0574  16.5082  16.6202  16.7798  17.4937  17.7263
    17.8949  18.1994  18.3995  19.1139

     occupation numbers 
     1.0000   1.0000   1.0000   1.0000   1.0000   1.0000   1.0000   1.0000
     1.0000   1.0000   1.0000   1.0000   1.0000   1.0000   1.0000   1.0000
     1.0000   1.0000   1.0000   1.0000   1.0000   1.0000   1.0000   1.0000
     0.7702   0.5862  -0.0000  -0.0000  -0.0000  -0.0000  -0.0000  -0.0000
    -0.0000  -0.0000  -0.0000  -0.0000  -0.0000  -0.0000  -0.0000  -0.0000
    -0.0000  -0.0000  -0.0000  -0.0000  -0.0000  -0.0000  -0.0000  -0.0000
    -0.0000  -0.0000  -0.0000  -0.0000  -0.0000  -0.0000  -0.0000  -0.0000
    -0.0000  -0.0000  -0.0000  -0.0000

          k = 0.1333 0.5389 0.0000 (  5390 PWs)   bands (ev):

   -51.4040 -51.3901 -27.8522 -27.8463 -27.5791 -27.5707 -27.5623 -27.5540
    -8.6226  -8.5937  -8.4826  -8.4532  -1.8023  -1.7697  -1.2667  -1.1914
    -0.3394  -0.3159   0.4470   0.5169   1.4294   1.5005   1.6208   1.8758
     3.2765   3.3586   6.2247   6.2804   6.8828   7.0021   7.4683   7.5588
     7.8015   8.0604   9.6134  10.2546  11.7116  11.9114  11.9871  12.2180
    12.4787  12.6081  12.9235  13.3071  13.7203  13.9590  14.0594  14.6174
    15.2216  15.6127  16.2098  16.4782  17.0177  17.2497  17.5116  17.7375
    18.1113  18.4534  18.7601  19.2273

     occupation numbers 
     1.0000   1.0000   1.0000   1.0000   1.0000   1.0000   1.0000   1.0000
     1.0000   1.0000   1.0000   1.0000   1.0000   1.0000   1.0000   1.0000
     1.0000   1.0000   1.0000   1.0000   1.0000   1.0000   1.0000   1.0000
     0.2953   0.1027  -0.0000  -0.0000  -0.0000  -0.0000  -0.0000  -0.0000
    -0.0000  -0.0000  -0.0000  -0.0000  -0.0000  -0.0000  -0.0000  -0.0000
    -0.0000  -0.0000  -0.0000  -0.0000  -0.0000  -0.0000  -0.0000  -0.0000
    -0.0000  -0.0000  -0.0000  -0.0000  -0.0000  -0.0000  -0.0000  -0.0000
    -0.0000  -0.0000  -0.0000  -0.0000

          k = 0.2000 0.3464 0.0000 (  5376 PWs)   bands (ev):

   -51.4145 -51.4006 -27.7522 -27.7455 -27.5851 -27.5772 -27.5549 -27.5464
    -9.0804  -9.0326  -8.6348  -8.5826  -1.4191  -1.3036  -0.5790  -0.5489
    -0.2745  -0.1764   0.2939   0.4673   1.2889   1.3254   2.1535   2.3330
     3.0070   3.0376   5.7355   6.0700   6.5447   6.5924   6.6992   6.8705
     8.1510   8.2003  10.7427  11.1198  11.3614  11.5102  11.9710  12.3313
    12.6704  13.2076  13.2715  13.5981  14.0245  14.1047  14.4697  14.5497
    14.8163  15.2475  15.3798  15.6960  15.9142  17.2741  17.3247  17.3445
    18.0721  18.2459  18.9506  19.1505

     occupation numbers 
     1.0000   1.0000   1.0000   1.0000   1.0000   1.0000   1.0000   1.0000
     1.0000   1.0000   1.0000   1.0000   1.0000   1.0000   1.0000   1.0000
     1.0000   1.0000   1.0000   1.0000   1.0000   1.0000   1.0000   1.0000
     0.9731   0.9321  -0.0000  -0.0000  -0.0000  -0.0000  -0.0000  -0.0000
    -0.0000  -0.0000  -0.0000  -0.0000  -0.0000  -0.0000  -0.0000  -0.0000
    -0.0000  -0.0000  -0.0000  -0.0000  -0.0000  -0.0000  -0.0000  -0.0000
    -0.0000  -0.0000  -0.0000  -0.0000  -0.0000  -0.0000  -0.0000  -0.0000
    -0.0000  -0.0000  -0.0000  -0.0000

          k = 0.2000 0.4234 0.0000 (  5377 PWs)   bands (ev):

   -51.4079 -51.3940 -27.7937 -27.7874 -27.5926 -27.5843 -27.5708 -27.5627
    -8.8037  -8.7645  -8.5373  -8.4975  -1.5007  -1.4201  -1.0392  -1.0018
    -0.1920  -0.1052   0.3272   0.4847   0.9724   1.0073   1.9320   2.0904
     3.1370   3.1712   5.9469   6.2384   6.7306   6.7603   6.9407   7.0894
     8.2443   8.3173  10.6939  11.0439  11.4454  11.5188  11.7864  12.4809
    12.6387  12.8998  13.2619  13.6524  13.9763  14.3405  14.5499  15.1514
    15.2494  15.2876  15.4019  15.8316  16.1408  16.8682  17.0235  17.4482
    17.6925  18.0876  18.3183  18.7640

     occupation numbers 
     1.0000   1.0000   1.0000   1.0000   1.0000   1.0000   1.0000   1.0000
     1.0000   1.0000   1.0000   1.0000   1.0000   1.0000   1.0000   1.0000
     1.0000   1.0000   1.0000   1.0000   1.0000   1.0000   1.0000   1.0000
     0.7138   0.6145  -0.0000  -0.0000  -0.0000  -0.0000  -0.0000  -0.0000
    -0.0000  -0.0000  -0.0000  -0.0000  -0.0000  -0.0000  -0.0000  -0.0000
    -0.0000  -0.0000  -0.0000  -0.0000  -0.0000  -0.0000  -0.0000  -0.0000
    -0.0000  -0.0000  -0.0000  -0.0000  -0.0000  -0.0000  -0.0000  -0.0000
    -0.0000  -0.0000  -0.0000  -0.0000

          k = 0.2000 0.5004 0.0000 (  5375 PWs)   bands (ev):

   -51.4034 -51.3895 -27.8198 -27.8137 -27.6200 -27.6119 -27.5611 -27.5528
    -8.6038  -8.5741  -8.4649  -8.4354  -1.5310  -1.4818  -1.3581  -1.3130
    -0.2421  -0.1855   0.4421   0.5635   0.7864   0.8615   1.6896   1.8566
     3.3602   3.4057   6.0322   6.1258   6.9206   7.0673   7.1913   7.2865
     8.1943   8.3498  10.0789  10.6916  11.4992  11.9031  12.0541  12.5263
    12.7301  12.8981  13.1589  13.8172  13.9064  14.2741  14.5046  14.9443
    15.2793  15.6558  15.8959  16.2051  16.3866  16.6609  16.8146  17.1310
    17.7214  18.0225  18.1818  18.5876

     occupation numbers 
     1.0000   1.0000   1.0000   1.0000   1.0000   1.0000   1.0000   1.0000
     1.0000   1.0000   1.0000   1.0000   1.0000   1.0000   1.0000   1.0000
     1.0000   1.0000   1.0000   1.0000   1.0000   1.0000   1.0000   1.0000
     0.0997   0.0317  -0.0000  -0.0000  -0.0000  -0.0000  -0.0000  -0.0000
    -0.0000  -0.0000  -0.0000  -0.0000  -0.0000  -0.0000  -0.0000  -0.0000
    -0.0000  -0.0000  -0.0000  -0.0000  -0.0000  -0.0000  -0.0000  -0.0000
    -0.0000  -0.0000  -0.0000  -0.0000  -0.0000  -0.0000  -0.0000  -0.0000
    -0.0000  -0.0000  -0.0000  -0.0000

          k = 0.2000 0.5774 0.0000 (  5358 PWs)   bands (ev):

   -51.4018 -51.3879 -27.8286 -27.8226 -27.6300 -27.6219 -27.5576 -27.5493
    -8.5304  -8.5060  -8.4373  -8.4120  -1.5225  -1.5046  -1.4686  -1.4218
    -0.3067  -0.2583   0.5158   0.6072   0.7415   0.8374   1.5762   1.7535
     3.4832   3.5402   5.9889   6.0156   7.0733   7.1756   7.3358   7.3760
     8.1444   8.3464   9.7999  10.4641  11.5496  12.2022  12.2593  12.4665
    12.8655  12.9674  13.2018  13.3587  14.0846  14.2712  14.6159  14.6513
    15.4133  15.4664  16.0490  16.1260  16.4041  16.8927  16.9703  17.0267
    17.8965  17.9839  18.1524  18.8075

     occupation numbers 
     1.0000   1.0000   1.0000   1.0000   1.0000   1.0000   1.0000   1.0000
     1.0000   1.0000   1.0000   1.0000   1.0000   1.0000   1.0000   1.0000
     1.0000   1.0000   1.0000   1.0000   1.0000   1.0000   1.0000   1.0000
    -0.0261  -0.0355  -0.0000  -0.0000  -0.0000  -0.0000  -0.0000  -0.0000
    -0.0000  -0.0000  -0.0000  -0.0000  -0.0000  -0.0000  -0.0000  -0.0000
    -0.0000  -0.0000  -0.0000  -0.0000  -0.0000  -0.0000  -0.0000  -0.0000
    -0.0000  -0.0000  -0.0000  -0.0000  -0.0000  -0.0000  -0.0000  -0.0000
    -0.0000  -0.0000  -0.0000  -0.0000

          k = 0.2667 0.4619 0.0000 (  5356 PWs)   bands (ev):

   -51.4032 -51.3893 -27.8008 -27.7947 -27.6420 -27.6340 -27.5606 -27.5524
    -8.5977  -8.5675  -8.4580  -8.4284  -1.4072  -1.3802  -1.3685  -1.3107
    -0.1412  -0.0434   0.4271   0.4524   0.4816   0.5889   1.7292   1.8427
     3.3974   3.4104   5.9448   6.0559   6.8998   7.0293   7.1145   7.2383
     8.4132   8.4583  10.5492  10.6865  11.4556  11.5438  11.9170  12.7802
    12.9156  13.1097  13.1960  14.1844  14.4793  14.5107  14.8090  15.0865
    15.2218  15.4749  15.6525  15.7217  16.1604  16.3589  16.6446  17.1060
    17.1735  17.7882  17.8741  18.7001

     occupation numbers 
     1.0000   1.0000   1.0000   1.0000   1.0000   1.0000   1.0000   1.0000
     1.0000   1.0000   1.0000   1.0000   1.0000   1.0000   1.0000   1.0000
     1.0000   1.0000   1.0000   1.0000   1.0000   1.0000   1.0000   1.0000
     0.0420   0.0262  -0.0000  -0.0000  -0.0000  -0.0000  -0.0000  -0.0000
    -0.0000  -0.0000  -0.0000  -0.0000  -0.0000  -0.0000  -0.0000  -0.0000
    -0.0000  -0.0000  -0.0000  -0.0000  -0.0000  -0.0000  -0.0000  -0.0000
    -0.0000  -0.0000  -0.0000  -0.0000  -0.0000  -0.0000  -0.0000  -0.0000
    -0.0000  -0.0000  -0.0000  -0.0000

          k = 0.2667 0.5389 0.0000 (  5362 PWs)   bands (ev):

   -51.4006 -51.3867 -27.7966 -27.7905 -27.6772 -27.6694 -27.5551 -27.5467
    -8.4812  -8.4594  -8.4099  -8.3863  -1.5981  -1.5645  -1.2144  -1.1625
    -0.2752  -0.1719   0.1550   0.2624   0.5912   0.7126   1.5354   1.6291
     3.6479   3.6692   5.7462   5.7719   7.0070   7.0599   7.3668   7.5007
     8.5000   8.5787  10.1955  10.6612  11.0093  11.5851  12.1865  13.0815
    13.2952  13.4565  13.6737  14.1273  14.3754  14.7062  14.7994  15.1484
    15.2540  15.3841  15.6088  15.9286  16.1667  16.3838  16.4520  16.7372
    17.0522  17.3707  18.1252  18.6183

     occupation numbers 
     1.0000   1.0000   1.0000   1.0000   1.0000   1.0000   1.0000   1.0000
     1.0000   1.0000   1.0000   1.0000   1.0000   1.0000   1.0000   1.0000
     1.0000   1.0000   1.0000   1.0000   1.0000   1.0000   1.0000   1.0000
    -0.0224  -0.0188  -0.0000  -0.0000  -0.0000  -0.0000  -0.0000  -0.0000
    -0.0000  -0.0000  -0.0000  -0.0000  -0.0000  -0.0000  -0.0000  -0.0000
    -0.0000  -0.0000  -0.0000  -0.0000  -0.0000  -0.0000  -0.0000  -0.0000
    -0.0000  -0.0000  -0.0000  -0.0000  -0.0000  -0.0000  -0.0000  -0.0000
    -0.0000  -0.0000  -0.0000  -0.0000

          k = 0.3333 0.5774 0.0000 (  5358 PWs)   bands (ev):

   -51.3996 -51.3857 -27.7730 -27.7672 -27.7130 -27.7050 -27.5529 -27.5446
    -8.4379  -8.4208  -8.3888  -8.3660  -1.6862  -1.6543  -0.9276  -0.8550
    -0.4377  -0.4223  -0.0020   0.0140   0.6849   0.8075   1.4603   1.4861
     3.8107   3.8131   5.5524   5.5774   6.9757   7.0143   7.5580   7.5926
     8.6485   8.6815  10.3803  10.6625  10.6684  11.3264  12.2314  13.6277
    13.6304  13.6409  14.1968  14.2077  14.5349  14.5390  14.9574  14.9871
    14.9994  15.5940  15.6917  16.0355  16.1271  16.1303  16.2688  16.5674
    16.5704  17.1198  18.5460  18.5669

     occupation numbers 
     1.0000   1.0000   1.0000   1.0000   1.0000   1.0000   1.0000   1.0000
     1.0000   1.0000   1.0000   1.0000   1.0000   1.0000   1.0000   1.0000
     1.0000   1.0000   1.0000   1.0000   1.0000   1.0000   1.0000   1.0000
    -0.0038  -0.0037  -0.0000  -0.0000  -0.0000  -0.0000  -0.0000  -0.0000
    -0.0000  -0.0000  -0.0000  -0.0000  -0.0000  -0.0000  -0.0000  -0.0000
    -0.0000  -0.0000  -0.0000  -0.0000  -0.0000  -0.0000  -0.0000  -0.0000
    -0.0000  -0.0000  -0.0000  -0.0000  -0.0000  -0.0000  -0.0000  -0.0000
    -0.0000  -0.0000  -0.0000  -0.0000

     the Fermi energy is     3.2084 ev

!    total energy              =    -907.91149121 Ry

     total all-electron energy =    -18448.320513 Ry
     estimated scf accuracy    <          4.2E-10 Ry
     smearing contrib. (-TS)   =      -0.00194929 Ry
     internal energy E=F+TS    =    -907.90954192 Ry

     The total energy is F=E-TS. E is the sum of the following terms:
     one-electron contribution =   -1048.08152257 Ry
     hartree contribution      =     537.56929573 Ry
     xc contribution           =     -65.32319697 Ry
     ewald contribution        =     256.18108273 Ry
     one-center paw contrib.   =    -588.25520084 Ry
      -> PAW hartree energy AE =     100.87603956 Ry
      -> PAW hartree energy PS =    -100.36191357 Ry
      -> PAW xc energy AE      =    -324.79853188 Ry
      -> PAW xc energy PS      =      30.15762073 Ry
      -> total E_H with PAW    =     538.08342172 Ry
      -> total E_XC with PAW   =    -359.96410811 Ry

     convergence has been achieved in  14 iterations

     Writing output data file ./tmp/NbS2_bi.save/

     init_run     :      8.15s CPU      8.42s WALL (       1 calls)
     electrons    :    384.59s CPU    390.32s WALL (       1 calls)

     Called by init_run:
     wfcinit      :      6.69s CPU      6.81s WALL (       1 calls)
     wfcinit:atom :      0.03s CPU      0.03s WALL (      27 calls)
     wfcinit:wfcr :      6.50s CPU      6.62s WALL (      27 calls)
     potinit      :      0.32s CPU      0.33s WALL (       1 calls)
     hinit0       :      0.67s CPU      0.68s WALL (       1 calls)

     Called by electrons:
     c_bands      :    328.21s CPU    330.51s WALL (      15 calls)
     sum_band     :     47.95s CPU     50.03s WALL (      15 calls)
     v_of_rho     :      0.46s CPU      0.49s WALL (      15 calls)
     v_h          :      0.24s CPU      0.26s WALL (      15 calls)
     v_xc         :      0.22s CPU      0.23s WALL (      15 calls)
     newd         :      6.74s CPU      8.12s WALL (      15 calls)
     PAW_pot      :      0.89s CPU      0.89s WALL (      15 calls)
     mix_rho      :      0.51s CPU      0.52s WALL (      15 calls)

     Called by c_bands:
     init_us_2    :      1.23s CPU      1.25s WALL (     837 calls)
     cegterg      :    322.37s CPU    324.29s WALL (     405 calls)

     Called by sum_band:
     sum_band:wei :      0.03s CPU      0.03s WALL (      15 calls)
     sum_band:loo :     38.93s CPU     39.22s WALL (      15 calls)
     sum_band:buf :      0.52s CPU      0.52s WALL (     405 calls)
     sum_band:ini :      0.57s CPU      0.57s WALL (     405 calls)
     sum_band:cal :      9.78s CPU      9.79s WALL (     405 calls)
     sum_band:bec :      0.05s CPU      0.05s WALL (     405 calls)
     addusdens    :      7.74s CPU      9.50s WALL (      15 calls)
     addusd:skk   :      0.03s CPU      0.05s WALL (      30 calls)
     addusd:dgemm :      3.10s CPU      4.57s WALL (      30 calls)
     addusd:qvan2 :      4.16s CPU      4.16s WALL (      30 calls)

     Called by *egterg:
     cdiaghg      :     11.30s CPU     11.31s WALL (    1868 calls)
     cegterg:over :     39.50s CPU     39.56s WALL (    1490 calls)
     cegterg:upda :     19.11s CPU     19.13s WALL (    1490 calls)
     cegterg:last :     52.00s CPU     52.02s WALL (     715 calls)
     h_psi        :    161.54s CPU    163.41s WALL (    1922 calls)
     s_psi        :     18.48s CPU     18.53s WALL (    1922 calls)
     g_psi        :      0.41s CPU      0.41s WALL (    1490 calls)

     Called by h_psi:
     h_psi:calbec :     23.23s CPU     23.31s WALL (    1922 calls)
     vloc_psi     :    119.54s CPU    121.28s WALL (    1922 calls)
     add_vuspsi   :     17.61s CPU     17.64s WALL (    1922 calls)

     General routines
     calbec       :     33.00s CPU     33.09s WALL (    2327 calls)
     fft          :      1.17s CPU      1.22s WALL (      89 calls)
     ffts         :      0.05s CPU      0.05s WALL (      30 calls)
     fftw         :    131.88s CPU    133.70s WALL (  140314 calls)
     interpolate  :      0.24s CPU      0.26s WALL (      15 calls)

     Parallel routines
     fft_scatt_xy :     12.87s CPU     13.06s WALL (  140433 calls)
     fft_scatt_yz :     24.79s CPU     25.03s WALL (  140433 calls)

     PAW routines
     PAW_pot      :      0.89s CPU      0.89s WALL (      15 calls)
     PAW_symme    :      0.00s CPU      0.00s WALL (      30 calls)

     PWSCF        :   6m34.22s CPU   6m41.12s WALL


   This run was terminated on:  17:17:13  14Jun2021            

=------------------------------------------------------------------------------=
   JOB DONE.
=------------------------------------------------------------------------------=
