
     Program PWSCF v.6.6 starts on 14Jun2021 at 16:47:40 

     This program is part of the open-source Quantum ESPRESSO suite
     for quantum simulation of materials; please cite
         "P. Giannozzi et al., J. Phys.:Condens. Matter 21 395502 (2009);
         "P. Giannozzi et al., J. Phys.:Condens. Matter 29 465901 (2017);
          URL http://www.quantum-espresso.org", 
     in publications or presentations arising from this work. More details at
     http://www.quantum-espresso.org/quote

     Parallel version (MPI), running on     2 processors

     MPI processes distributed on     1 nodes
     R & G space division:  proc/nbgrp/npool/nimage =       2
     Fft bands division:     nmany     =       1
     Waiting for input...
     Reading input from standard input

     Current dimensions of program PWSCF are:
     Max number of different atomic species (ntypx) = 10
     Max number of k-points (npk) =  40000
     Max angular momentum in pseudopotentials (lmaxx) =  3
     file Nb.pz-spn-kjpaw_psl.1.0.0.UPF: wavefunction(s)  4S 4P 4D renormalized
     file S.pz-n-kjpaw_psl.0.1.UPF: wavefunction(s)  3P renormalized

     Subspace diagonalization in iterative solution of the eigenvalue problem:
     a serial algorithm will be used


     Parallelization info
     --------------------
     sticks:   dense  smooth     PW     G-vecs:    dense   smooth      PW
     Min         534     210     60                85019    21488    3522
     Max         535     211     61                85022    21517    3545
     Sum        1069     421    121               170041    43005    7067



     bravais-lattice index     =            4
     lattice parameter (alat)  =       6.2006  a.u.
     unit-cell volume          =    1258.4114 (a.u.)^3
     number of atoms/cell      =            6
     number of atomic types    =            2
     number of electrons       =        50.00
     number of Kohn-Sham states=           60
     kinetic-energy cutoff     =      40.0000  Ry
     charge density cutoff     =     400.0000  Ry
     convergence threshold     =      1.0E-08
     mixing beta               =       0.7000
     number of iterations used =            8  plain     mixing
     Exchange-correlation= SLA PZ NOGX NOGC
                           (   1   1   0   0   0   0   0)

     celldm(1)=   6.200569  celldm(2)=   0.000000  celldm(3)=   6.095331
     celldm(4)=   0.000000  celldm(5)=   0.000000  celldm(6)=   0.000000

     crystal axes: (cart. coord. in units of alat)
               a(1) = (   1.000000   0.000000   0.000000 )  
               a(2) = (  -0.500000   0.866025   0.000000 )  
               a(3) = (   0.000000   0.000000   6.095331 )  

     reciprocal axes: (cart. coord. in units 2 pi/alat)
               b(1) = (  1.000000  0.577350 -0.000000 )  
               b(2) = (  0.000000  1.154701  0.000000 )  
               b(3) = (  0.000000 -0.000000  0.164060 )  


     PseudoPot. # 1 for Nb read from file:
     ../Nb.pz-spn-kjpaw_psl.1.0.0.UPF
     MD5 check sum: 38c2e04b3cc915696ca8dc9f46a23270
     Pseudo is Projector augmented-wave + core cor, Zval = 13.0
     Generated using "atomic" code by A. Dal Corso v.6.2.2
     Shape of augmentation charge: PSQ
     Using radial grid of 1227 points,  6 beta functions with: 
                l(1) =   0
                l(2) =   0
                l(3) =   1
                l(4) =   1
                l(5) =   2
                l(6) =   2
     Q(r) pseudized with 0 coefficients 


     PseudoPot. # 2 for S  read from file:
     ../S.pz-n-kjpaw_psl.0.1.UPF
     MD5 check sum: c0b1682311cf098e03f7841691d9a679
     Pseudo is Projector augmented-wave + core cor, Zval =  6.0
     Generated using "atomic" code by A. Dal Corso v.5.0.2 svn rev. 9415
     Shape of augmentation charge: PSQ
     Using radial grid of 1151 points,  4 beta functions with: 
                l(1) =   0
                l(2) =   0
                l(3) =   1
                l(4) =   1
     Q(r) pseudized with 0 coefficients 


     atomic species   valence    mass     pseudopotential
        Nb            13.00    92.90600     Nb( 1.00)
        S              6.00    32.06500     S ( 1.00)

      6 Sym. Ops. (no inversion) found


                                    s                        frac. trans.

      isym =  1     identity                                     

 cryst.   s( 1) = (     1          0          0      )
                  (     0          1          0      )
                  (     0          0          1      )

 cart.    s( 1) = (  1.0000000  0.0000000  0.0000000 )
                  (  0.0000000  1.0000000  0.0000000 )
                  (  0.0000000  0.0000000  1.0000000 )


      isym =  2     120 deg rotation - cryst. axis [0,0,1]       

 cryst.   s( 2) = (     0          1          0      )
                  (    -1         -1          0      )
                  (     0          0          1      )

 cart.    s( 2) = ( -0.5000000 -0.8660254  0.0000000 )
                  (  0.8660254 -0.5000000  0.0000000 )
                  (  0.0000000  0.0000000  1.0000000 )


      isym =  3     120 deg rotation - cryst. axis [0,0,-1]      

 cryst.   s( 3) = (    -1         -1          0      )
                  (     1          0          0      )
                  (     0          0          1      )

 cart.    s( 3) = ( -0.5000000  0.8660254  0.0000000 )
                  ( -0.8660254 -0.5000000  0.0000000 )
                  (  0.0000000  0.0000000  1.0000000 )


      isym =  4     inv. 180 deg rotation - cart. axis [1,0,0]   

 cryst.   s( 4) = (    -1          0          0      )
                  (     1          1          0      )
                  (     0          0          1      )

 cart.    s( 4) = ( -1.0000000  0.0000000  0.0000000 )
                  (  0.0000000  1.0000000  0.0000000 )
                  (  0.0000000  0.0000000  1.0000000 )


      isym =  5     inv. 180 deg rotation - cryst. axis [0,1,0]  

 cryst.   s( 5) = (     1          1          0      )
                  (     0         -1          0      )
                  (     0          0          1      )

 cart.    s( 5) = (  0.5000000  0.8660254  0.0000000 )
                  (  0.8660254 -0.5000000  0.0000000 )
                  (  0.0000000  0.0000000  1.0000000 )


      isym =  6     inv. 180 deg rotation - cryst. axis [1,1,0]  

 cryst.   s( 6) = (     0         -1          0      )
                  (    -1          0          0      )
                  (     0          0          1      )

 cart.    s( 6) = (  0.5000000 -0.8660254  0.0000000 )
                  ( -0.8660254 -0.5000000  0.0000000 )
                  (  0.0000000  0.0000000  1.0000000 )


     point group C_3v (3m)  
     there are  3 classes
     the character table:

       E     2C3   3s_v 
A_1    1.00  1.00  1.00
A_2    1.00  1.00 -1.00
E      2.00 -1.00  0.00

     the symmetry operations in each class and the name of the first element:

     E        1
          identity                                               
     2C3      2    3
          120 deg rotation - cryst. axis [0,0,1]                 
     3s_v     4    5    6
          inv. 180 deg rotation - cart. axis [1,0,0]             

   Cartesian axes

     site n.     atom                  positions (alat units)
         1           S   tau(   1) = (   0.0000000   0.5773503   1.4932768  )
         2           Nb  tau(   2) = (   0.0000000   0.0000000   1.0094618  )
         3           S   tau(   3) = (   0.0000000   0.5773503   0.5321904  )
         4           S   tau(   4) = (   0.5000000   0.2886751   2.5511139  )
         5           Nb  tau(   5) = (   0.0000000   0.0000000   3.0283905  )
         6           S   tau(   6) = (   0.5000000   0.2886751   3.5056620  )

   Crystallographic axes

     site n.     atom                  positions (cryst. coord.)
         1           S   tau(   1) = (  0.3333333  0.6666667  0.2449870  )
         2           Nb  tau(   2) = (  0.0000000  0.0000000  0.1656123  )
         3           S   tau(   3) = (  0.3333333  0.6666667  0.0873112  )
         4           S   tau(   4) = (  0.6666667  0.3333333  0.4185358  )
         5           Nb  tau(   5) = (  0.0000000  0.0000000  0.4968378  )
         6           S   tau(   6) = (  0.6666667  0.3333333  0.5751389  )

     number of k points=    14  Methfessel-Paxton smearing, width (Ry)=  0.0200
                       cart. coord. in units 2pi/alat
        k(    1) = (   0.0000000   0.0000000   0.0000000), wk =   0.0200000
        k(    2) = (   0.0000000   0.1154701   0.0000000), wk =   0.1200000
        k(    3) = (   0.0000000   0.2309401   0.0000000), wk =   0.1200000
        k(    4) = (   0.0000000   0.3464102   0.0000000), wk =   0.1200000
        k(    5) = (   0.0000000   0.4618802   0.0000000), wk =   0.1200000
        k(    6) = (   0.0000000  -0.5773503   0.0000000), wk =   0.0600000
        k(    7) = (   0.1000000   0.1732051   0.0000000), wk =   0.1200000
        k(    8) = (   0.1000000   0.2886751   0.0000000), wk =   0.2400000
        k(    9) = (   0.1000000   0.4041452   0.0000000), wk =   0.2400000
        k(   10) = (   0.1000000   0.5196152   0.0000000), wk =   0.2400000
        k(   11) = (   0.2000000   0.3464102   0.0000000), wk =   0.1200000
        k(   12) = (   0.2000000   0.4618802   0.0000000), wk =   0.2400000
        k(   13) = (   0.2000000   0.5773503   0.0000000), wk =   0.1200000
        k(   14) = (   0.3000000   0.5196152   0.0000000), wk =   0.1200000

                       cryst. coord.
        k(    1) = (   0.0000000   0.0000000   0.0000000), wk =   0.0200000
        k(    2) = (   0.0000000   0.1000000   0.0000000), wk =   0.1200000
        k(    3) = (   0.0000000   0.2000000   0.0000000), wk =   0.1200000
        k(    4) = (   0.0000000   0.3000000   0.0000000), wk =   0.1200000
        k(    5) = (   0.0000000   0.4000000   0.0000000), wk =   0.1200000
        k(    6) = (   0.0000000  -0.5000000   0.0000000), wk =   0.0600000
        k(    7) = (   0.1000000   0.1000000   0.0000000), wk =   0.1200000
        k(    8) = (   0.1000000   0.2000000   0.0000000), wk =   0.2400000
        k(    9) = (   0.1000000   0.3000000   0.0000000), wk =   0.2400000
        k(   10) = (   0.1000000   0.4000000   0.0000000), wk =   0.2400000
        k(   11) = (   0.2000000   0.2000000   0.0000000), wk =   0.1200000
        k(   12) = (   0.2000000   0.3000000   0.0000000), wk =   0.2400000
        k(   13) = (   0.2000000   0.4000000   0.0000000), wk =   0.1200000
        k(   14) = (   0.3000000   0.3000000   0.0000000), wk =   0.1200000

     Dense  grid:   170041 G-vectors     FFT dimensions: (  40,  40, 243)

     Smooth grid:    43005 G-vectors     FFT dimensions: (  25,  25, 160)

     Dynamical RAM for                 wfc:       2.46 MB

     Dynamical RAM for     wfc (w. buffer):      36.91 MB

     Dynamical RAM for           str. fact:       2.59 MB

     Dynamical RAM for           local pot:       0.00 MB

     Dynamical RAM for          nlocal pot:       2.79 MB

     Dynamical RAM for                qrad:       3.21 MB

     Dynamical RAM for          rho,v,vnew:       8.36 MB

     Dynamical RAM for               rhoin:       2.79 MB

     Dynamical RAM for            rho*nmix:      20.76 MB

     Dynamical RAM for           G-vectors:       5.03 MB

     Dynamical RAM for          h,s,v(r/c):       0.66 MB

     Dynamical RAM for          <psi|beta>:       0.06 MB

     Dynamical RAM for                 psi:       4.92 MB

     Dynamical RAM for                hpsi:       4.92 MB

     Dynamical RAM for                spsi:       4.92 MB

     Dynamical RAM for      wfcinit/wfcrot:       5.00 MB

     Dynamical RAM for           addusdens:     246.48 MB

     Estimated static dynamical RAM per process >      93.78 MB

     Estimated max dynamical RAM per process >     340.26 MB

     Estimated total dynamical RAM >     680.53 MB

     Initial potential from superposition of free atoms

     starting charge   49.99775, renormalised to   50.00000

     negative rho (up, down):  7.872E-05 0.000E+00
     Starting wfcs are   42 randomized atomic wfcs +   18 random wfcs
     Checking if some PAW data can be deallocated... 

     total cpu time spent up to now is        5.9 secs

     Self-consistent Calculation

     iteration #  1     ecut=    40.00 Ry     beta= 0.70
     Davidson diagonalization with overlap
     ethr =  1.00E-02,  avg # of iterations =  7.8

     Threshold (ethr) on eigenvalues was too large:
     Diagonalizing with lowered threshold

     Davidson diagonalization with overlap
     ethr =  5.35E-04,  avg # of iterations =  2.4

     negative rho (up, down):  1.254E-04 0.000E+00

     total cpu time spent up to now is       41.1 secs

     total energy              =    -907.81133793 Ry
     estimated scf accuracy    <       0.26867190 Ry

     iteration #  2     ecut=    40.00 Ry     beta= 0.70
     Davidson diagonalization with overlap
     ethr =  5.37E-04,  avg # of iterations =  5.6

     negative rho (up, down):  1.428E-04 0.000E+00

     total cpu time spent up to now is       56.7 secs

     total energy              =    -907.49992210 Ry
     estimated scf accuracy    <       3.01385274 Ry

     iteration #  3     ecut=    40.00 Ry     beta= 0.70
     Davidson diagonalization with overlap
     ethr =  5.37E-04,  avg # of iterations =  7.5

     negative rho (up, down):  1.218E-04 0.000E+00

     total cpu time spent up to now is       72.4 secs

     total energy              =    -906.85552921 Ry
     estimated scf accuracy    <      38.11318254 Ry

     iteration #  4     ecut=    40.00 Ry     beta= 0.70
     Davidson diagonalization with overlap
     ethr =  5.37E-04,  avg # of iterations =  7.1

     negative rho (up, down):  1.219E-04 0.000E+00

     total cpu time spent up to now is       87.8 secs

     total energy              =    -907.89557188 Ry
     estimated scf accuracy    <       0.14860240 Ry

     iteration #  5     ecut=    40.00 Ry     beta= 0.70
     Davidson diagonalization with overlap
     ethr =  2.97E-04,  avg # of iterations =  2.1

     negative rho (up, down):  1.241E-04 0.000E+00

     total cpu time spent up to now is      100.0 secs

     total energy              =    -907.90694689 Ry
     estimated scf accuracy    <       0.13490752 Ry

     iteration #  6     ecut=    40.00 Ry     beta= 0.70
     Davidson diagonalization with overlap
     ethr =  2.70E-04,  avg # of iterations =  1.3

     negative rho (up, down):  1.257E-04 0.000E+00

     total cpu time spent up to now is      110.9 secs

     total energy              =    -907.90754603 Ry
     estimated scf accuracy    <       0.06437916 Ry

     iteration #  7     ecut=    40.00 Ry     beta= 0.70
     Davidson diagonalization with overlap
     ethr =  1.29E-04,  avg # of iterations =  1.6

     negative rho (up, down):  1.276E-04 0.000E+00

     total cpu time spent up to now is      122.3 secs

     total energy              =    -907.91070013 Ry
     estimated scf accuracy    <       0.01684644 Ry

     iteration #  8     ecut=    40.00 Ry     beta= 0.70
     Davidson diagonalization with overlap
     ethr =  3.37E-05,  avg # of iterations =  4.6

     negative rho (up, down):  1.292E-04 0.000E+00

     total cpu time spent up to now is      134.7 secs

     total energy              =    -907.91127281 Ry
     estimated scf accuracy    <       0.00177005 Ry

     iteration #  9     ecut=    40.00 Ry     beta= 0.70
     Davidson diagonalization with overlap
     ethr =  3.54E-06,  avg # of iterations =  7.6

     negative rho (up, down):  1.318E-04 0.000E+00

     total cpu time spent up to now is      148.2 secs

     total energy              =    -907.91127189 Ry
     estimated scf accuracy    <       0.00418326 Ry

     iteration # 10     ecut=    40.00 Ry     beta= 0.70
     Davidson diagonalization with overlap
     ethr =  3.54E-06,  avg # of iterations =  1.0

     negative rho (up, down):  1.317E-04 0.000E+00

     total cpu time spent up to now is      158.7 secs

     total energy              =    -907.91146858 Ry
     estimated scf accuracy    <       0.00340852 Ry

     iteration # 11     ecut=    40.00 Ry     beta= 0.70
     Davidson diagonalization with overlap
     ethr =  3.54E-06,  avg # of iterations =  1.0

     negative rho (up, down):  1.321E-04 0.000E+00

     total cpu time spent up to now is      169.2 secs

     total energy              =    -907.91152968 Ry
     estimated scf accuracy    <       0.00016725 Ry

     iteration # 12     ecut=    40.00 Ry     beta= 0.70
     Davidson diagonalization with overlap
     ethr =  3.34E-07,  avg # of iterations =  1.0

     negative rho (up, down):  1.321E-04 0.000E+00

     total cpu time spent up to now is      179.7 secs

     total energy              =    -907.91153222 Ry
     estimated scf accuracy    <       0.00000230 Ry

     iteration # 13     ecut=    40.00 Ry     beta= 0.70
     Davidson diagonalization with overlap
     ethr =  4.61E-09,  avg # of iterations =  1.0

     negative rho (up, down):  1.321E-04 0.000E+00

     total cpu time spent up to now is      190.2 secs

     total energy              =    -907.91153228 Ry
     estimated scf accuracy    <       0.00000003 Ry

     iteration # 14     ecut=    40.00 Ry     beta= 0.70
     Davidson diagonalization with overlap
     ethr =  5.81E-11,  avg # of iterations =  2.3

     negative rho (up, down):  1.321E-04 0.000E+00

     total cpu time spent up to now is      202.7 secs

     End of self-consistent calculation

          k = 0.0000 0.0000 0.0000 (  5429 PWs)   bands (ev):

   -51.4498 -51.4352 -27.6626 -27.6543 -27.4321 -27.4321 -27.4219 -27.4219
   -10.3510 -10.2866  -9.0610  -8.9609  -2.1129  -1.8088   0.9728   0.9728
     1.0226   1.0226   1.3931   2.0775   2.0775   2.1166   2.1166   2.1291
     3.8439   4.2778   6.3259   6.3259   6.3692   6.3692   6.5027   6.5027
     6.5378   6.5378   8.5507   8.7283   9.0062   9.6092  11.3533  11.5628
    11.6241  11.9813  13.8547  13.8547  13.8799  13.8799  14.0205  15.7617
    15.7999  15.7999  16.0493  16.0493  16.1268  17.1019  18.0538  18.5258
    18.6692  18.6693  18.8021  19.1720

     occupation numbers 
     1.0000   1.0000   1.0000   1.0000   1.0000   1.0000   1.0000   1.0000
     1.0000   1.0000   1.0000   1.0000   1.0000   1.0000   1.0000   1.0000
     1.0000   1.0000   1.0000   1.0000   1.0000   1.0000   1.0000   1.0000
    -0.0023  -0.0000  -0.0000  -0.0000  -0.0000  -0.0000  -0.0000  -0.0000
    -0.0000  -0.0000  -0.0000  -0.0000  -0.0000  -0.0000  -0.0000  -0.0000
    -0.0000  -0.0000  -0.0000  -0.0000  -0.0000  -0.0000  -0.0000  -0.0000
    -0.0000  -0.0000  -0.0000  -0.0000  -0.0000  -0.0000  -0.0000  -0.0000
    -0.0000  -0.0000  -0.0000  -0.0000

          k = 0.0000 0.1155 0.0000 (  5395 PWs)   bands (ev):

   -51.4456 -51.4309 -27.6533 -27.6449 -27.4763 -27.4664 -27.4418 -27.4317
   -10.2146 -10.1511  -9.0160  -8.9207  -1.9520  -1.6491   0.6259   0.6714
     1.0142   1.1107   1.1587   1.3960   1.8518   1.8927   2.2270   2.5358
     3.7728   4.0843   6.1562   6.2585   6.2696   6.3564   6.3670   6.4257
     6.6161   6.6469   8.9618   9.3198   9.4637   9.8937  11.5737  11.8556
    12.2634  12.4117  13.2966  13.5232  14.2616  14.2649  14.3132  14.7891
    15.0843  15.7653  15.8581  16.0665  16.0766  17.1421  17.6197  18.3392
    18.5308  18.6822  18.9838  19.0213

     occupation numbers 
     1.0000   1.0000   1.0000   1.0000   1.0000   1.0000   1.0000   1.0000
     1.0000   1.0000   1.0000   1.0000   1.0000   1.0000   1.0000   1.0000
     1.0000   1.0000   1.0000   1.0000   1.0000   1.0000   1.0000   1.0013
    -0.0062  -0.0000  -0.0000  -0.0000  -0.0000  -0.0000  -0.0000  -0.0000
    -0.0000  -0.0000  -0.0000  -0.0000  -0.0000  -0.0000  -0.0000  -0.0000
    -0.0000  -0.0000  -0.0000  -0.0000  -0.0000  -0.0000  -0.0000  -0.0000
    -0.0000  -0.0000  -0.0000  -0.0000  -0.0000  -0.0000  -0.0000  -0.0000
    -0.0000  -0.0000  -0.0000  -0.0000

          k = 0.0000 0.2309 0.0000 (  5379 PWs)   bands (ev):

   -51.4343 -51.4196 -27.6290 -27.6203 -27.5904 -27.5815 -27.4673 -27.4573
    -9.8406  -9.7804  -8.8925  -8.8107  -1.5814  -1.2979  -0.0623  -0.0291
     0.3517   0.5928   1.3658   1.3917   1.4726   1.5349   2.1148   2.4698
     3.4022   3.5199   5.8141   6.1597   6.1697   6.2174   6.3719   6.5698
     7.1855   7.2372   9.5390  10.0747  10.6189  11.0770  11.9934  12.1544
    12.6450  12.8232  12.8503  13.1664  14.1287  14.3787  14.8498  15.2708
    15.2883  15.3990  15.6769  15.8919  16.3064  16.6669  16.9303  17.4592
    17.6037  18.0585  18.1938  18.9428

     occupation numbers 
     1.0000   1.0000   1.0000   1.0000   1.0000   1.0000   1.0000   1.0000
     1.0000   1.0000   1.0000   1.0000   1.0000   1.0000   1.0000   1.0000
     1.0000   1.0000   1.0000   1.0000   1.0000   1.0000   1.0000   1.0004
     0.0345  -0.0345  -0.0000  -0.0000  -0.0000  -0.0000  -0.0000  -0.0000
    -0.0000  -0.0000  -0.0000  -0.0000  -0.0000  -0.0000  -0.0000  -0.0000
    -0.0000  -0.0000  -0.0000  -0.0000  -0.0000  -0.0000  -0.0000  -0.0000
    -0.0000  -0.0000  -0.0000  -0.0000  -0.0000  -0.0000  -0.0000  -0.0000
    -0.0000  -0.0000  -0.0000  -0.0000

          k = 0.0000 0.3464 0.0000 (  5377 PWs)   bands (ev):

   -51.4203 -51.4055 -27.7284 -27.7207 -27.5987 -27.5896 -27.4986 -27.4888
    -9.3335  -9.2810  -8.7262  -8.6641  -1.5110  -1.3630  -0.4510  -0.3474
    -0.2880  -0.1585   0.8911   0.9309   1.8129   1.9026   1.9494   2.1719
     2.9034   2.9868   5.9874   6.0974   6.1432   6.3542   6.8365   7.0925
     7.6943   7.7766  10.2282  10.6049  10.9067  11.3384  11.5443  12.0132
    12.0499  12.7275  13.1012  13.6138  14.2324  14.8657  15.1236  15.2115
    15.4678  15.7851  15.7853  16.5301  16.6372  16.8344  17.0020  17.4990
    17.5057  17.7856  17.9495  18.3303

     occupation numbers 
     1.0000   1.0000   1.0000   1.0000   1.0000   1.0000   1.0000   1.0000
     1.0000   1.0000   1.0000   1.0000   1.0000   1.0000   1.0000   1.0000
     1.0000   1.0000   1.0000   1.0000   1.0000   1.0000   1.0000   1.0000
     1.0334   0.9926  -0.0000  -0.0000  -0.0000  -0.0000  -0.0000  -0.0000
    -0.0000  -0.0000  -0.0000  -0.0000  -0.0000  -0.0000  -0.0000  -0.0000
    -0.0000  -0.0000  -0.0000  -0.0000  -0.0000  -0.0000  -0.0000  -0.0000
    -0.0000  -0.0000  -0.0000  -0.0000  -0.0000  -0.0000  -0.0000  -0.0000
    -0.0000  -0.0000  -0.0000  -0.0000

          k = 0.0000 0.4619 0.0000 (  5375 PWs)   bands (ev):

   -51.4090 -51.3941 -27.8377 -27.8308 -27.5741 -27.5647 -27.5237 -27.5141
    -8.8696  -8.8306  -8.5769  -8.5356  -1.8862  -1.8252  -0.9099  -0.7775
    -0.3703  -0.3218   0.5678   0.6091   1.6075   1.9568   2.2102   2.2585
     2.8773   2.9858   6.2603   6.2835   6.4469   6.6671   7.2105   7.4784
     7.9827   8.0947  10.0089  10.2878  10.9312  10.9954  11.1731  11.6726
    12.0205  12.8695  13.2793  13.6551  13.8435  14.3399  14.4247  14.8078
    15.2124  15.6189  16.3208  17.0293  17.1278  17.4043  17.6102  18.1129
    18.1541  18.6411  18.9786  19.0867

     occupation numbers 
     1.0000   1.0000   1.0000   1.0000   1.0000   1.0000   1.0000   1.0000
     1.0000   1.0000   1.0000   1.0000   1.0000   1.0000   1.0000   1.0000
     1.0000   1.0000   1.0000   1.0000   1.0000   1.0000   1.0000   1.0000
     1.0354   0.9935  -0.0000  -0.0000  -0.0000  -0.0000  -0.0000  -0.0000
    -0.0000  -0.0000  -0.0000  -0.0000  -0.0000  -0.0000  -0.0000  -0.0000
    -0.0000  -0.0000  -0.0000  -0.0000  -0.0000  -0.0000  -0.0000  -0.0000
    -0.0000  -0.0000  -0.0000  -0.0000  -0.0000  -0.0000  -0.0000  -0.0000
    -0.0000  -0.0000  -0.0000  -0.0000

          k = 0.0000-0.5774 0.0000 (  5356 PWs)   bands (ev):

   -51.4047 -51.3898 -27.8789 -27.8723 -27.5646 -27.5552 -27.5332 -27.5236
    -8.6737  -8.6450  -8.5145  -8.4839  -2.0710  -2.0318  -1.1148  -0.9906
    -0.4176  -0.3914   0.4547   0.4965   1.5468   1.8893   2.3113   2.3624
     3.0377   3.1492   6.3935   6.4044   6.8038   6.8265   7.2822   7.5907
     8.0684   8.1927   9.2810   9.8091  11.0364  11.0821  11.4863  11.5723
    12.5085  12.5656  13.1760  13.4011  13.9203  13.9442  14.0405  14.3231
    14.9982  15.0471  16.4066  16.8386  17.6641  17.7162  17.8909  18.6578
    18.8245  19.0705  19.7290  19.9994

     occupation numbers 
     1.0000   1.0000   1.0000   1.0000   1.0000   1.0000   1.0000   1.0000
     1.0000   1.0000   1.0000   1.0000   1.0000   1.0000   1.0000   1.0000
     1.0000   1.0000   1.0000   1.0000   1.0000   1.0000   1.0000   1.0001
     0.9302   0.6761  -0.0000  -0.0000  -0.0000  -0.0000  -0.0000  -0.0000
    -0.0000  -0.0000  -0.0000  -0.0000  -0.0000  -0.0000  -0.0000  -0.0000
    -0.0000  -0.0000  -0.0000  -0.0000  -0.0000  -0.0000  -0.0000  -0.0000
    -0.0000  -0.0000  -0.0000  -0.0000  -0.0000  -0.0000  -0.0000  -0.0000
    -0.0000  -0.0000  -0.0000  -0.0000

          k = 0.1000 0.1732 0.0000 (  5351 PWs)   bands (ev):

   -51.4378 -51.4231 -27.6365 -27.6279 -27.5521 -27.5430 -27.4626 -27.4526
    -9.9591  -9.8977  -8.9314  -8.8453  -1.6763  -1.3806   0.1267   0.1644
     0.5997   0.8910   1.3162   1.3232   1.3387   1.4105   2.3463   2.6503
     3.5520   3.6966   5.8449   6.0800   6.1839   6.2331   6.2549   6.3984
     7.1057   7.1602   9.3812   9.9379  10.4127  10.7161  11.9336  12.0388
    12.7507  13.0911  13.1369  13.1392  14.0548  14.1566  14.4913  14.8297
    14.9120  15.4438  15.7314  15.8897  16.0469  17.1217  17.5097  17.5398
    17.6676  18.2589  18.4641  19.3039

     occupation numbers 
     1.0000   1.0000   1.0000   1.0000   1.0000   1.0000   1.0000   1.0000
     1.0000   1.0000   1.0000   1.0000   1.0000   1.0000   1.0000   1.0000
     1.0000   1.0000   1.0000   1.0000   1.0000   1.0000   1.0000   1.0068
    -0.0352  -0.0145  -0.0000  -0.0000  -0.0000  -0.0000  -0.0000  -0.0000
    -0.0000  -0.0000  -0.0000  -0.0000  -0.0000  -0.0000  -0.0000  -0.0000
    -0.0000  -0.0000  -0.0000  -0.0000  -0.0000  -0.0000  -0.0000  -0.0000
    -0.0000  -0.0000  -0.0000  -0.0000  -0.0000  -0.0000  -0.0000  -0.0000
    -0.0000  -0.0000  -0.0000  -0.0000

          k = 0.1000 0.2887 0.0000 (  5371 PWs)   bands (ev):

   -51.4252 -51.4104 -27.6705 -27.6623 -27.6091 -27.6003 -27.4988 -27.4890
    -9.5161  -9.4601  -8.7842  -8.7146  -1.3966  -1.1756  -0.3447  -0.2996
     0.0171   0.1692   0.7061   0.8029   1.6015   1.6441   2.2234   2.4923
     3.1092   3.1543   5.6976   5.9464   6.2293   6.3742   6.4694   6.6669
     7.7053   7.7665  10.0354  10.5288  11.2180  11.8164  12.0130  12.3549
    12.5298  12.6672  12.9596  13.1300  14.2956  14.6735  14.7412  14.7887
    15.0653  15.3703  15.4510  16.0218  16.1543  16.6267  16.7436  17.5981
    17.7857  17.9916  18.3212  19.4360

     occupation numbers 
     1.0000   1.0000   1.0000   1.0000   1.0000   1.0000   1.0000   1.0000
     1.0000   1.0000   1.0000   1.0000   1.0000   1.0000   1.0000   1.0000
     1.0000   1.0000   1.0000   1.0000   1.0000   1.0000   1.0000   1.0006
     0.7841   0.6613  -0.0000  -0.0000  -0.0000  -0.0000  -0.0000  -0.0000
    -0.0000  -0.0000  -0.0000  -0.0000  -0.0000  -0.0000  -0.0000  -0.0000
    -0.0000  -0.0000  -0.0000  -0.0000  -0.0000  -0.0000  -0.0000  -0.0000
    -0.0000  -0.0000  -0.0000  -0.0000  -0.0000  -0.0000  -0.0000  -0.0000
    -0.0000  -0.0000  -0.0000  -0.0000

          k = 0.1000 0.4041 0.0000 (  5386 PWs)   bands (ev):

   -51.4125 -51.3977 -27.7859 -27.7787 -27.5817 -27.5725 -27.5351 -27.5255
    -9.0224  -8.9773  -8.6206  -8.5715  -1.6129  -1.5244  -0.7202  -0.6154
    -0.3145  -0.2459   0.4766   0.5778   1.6843   1.7304   1.8926   2.1567
     2.9561   3.0175   5.9331   6.1541   6.4905   6.5816   6.9614   7.1633
     8.0122   8.0660  10.6597  10.8204  11.0149  11.2512  11.4463  12.0109
    12.1793  13.0152  13.2281  13.8184  14.0990  14.1207  14.4682  15.0857
    15.3028  15.3990  15.8491  16.3433  16.4334  17.1412  17.5180  17.5464
    17.9623  18.2888  18.5112  18.8287

     occupation numbers 
     1.0000   1.0000   1.0000   1.0000   1.0000   1.0000   1.0000   1.0000
     1.0000   1.0000   1.0000   1.0000   1.0000   1.0000   1.0000   1.0000
     1.0000   1.0000   1.0000   1.0000   1.0000   1.0000   1.0000   1.0000
     1.0152   0.9590  -0.0000  -0.0000  -0.0000  -0.0000  -0.0000  -0.0000
    -0.0000  -0.0000  -0.0000  -0.0000  -0.0000  -0.0000  -0.0000  -0.0000
    -0.0000  -0.0000  -0.0000  -0.0000  -0.0000  -0.0000  -0.0000  -0.0000
    -0.0000  -0.0000  -0.0000  -0.0000  -0.0000  -0.0000  -0.0000  -0.0000
    -0.0000  -0.0000  -0.0000  -0.0000

          k = 0.1000 0.5196 0.0000 (  5390 PWs)   bands (ev):

   -51.4047 -51.3898 -27.8561 -27.8494 -27.5647 -27.5574 -27.5552 -27.5481
    -8.6801  -8.6494  -8.5077  -8.4758  -1.8861  -1.8462  -1.1596  -1.0661
    -0.3559  -0.3317   0.4455   0.5054   1.6233   1.7438   1.7994   1.9151
     3.1695   3.2595   6.2739   6.3445   6.7867   6.8656   7.4215   7.5851
     7.8557   8.0150   9.6212  10.1992  11.4077  11.5680  11.6935  11.9945
    12.3573  12.9200  12.9477  13.4850  13.6607  13.8134  14.0234  14.5972
    15.2413  15.5711  16.1921  16.6594  17.2553  17.3806  17.7009  17.9469
    18.3359  18.5746  18.8720  19.3151

     occupation numbers 
     1.0000   1.0000   1.0000   1.0000   1.0000   1.0000   1.0000   1.0000
     1.0000   1.0000   1.0000   1.0000   1.0000   1.0000   1.0000   1.0000
     1.0000   1.0000   1.0000   1.0000   1.0000   1.0000   1.0000   1.0000
     0.6164   0.3409  -0.0000  -0.0000  -0.0000  -0.0000  -0.0000  -0.0000
    -0.0000  -0.0000  -0.0000  -0.0000  -0.0000  -0.0000  -0.0000  -0.0000
    -0.0000  -0.0000  -0.0000  -0.0000  -0.0000  -0.0000  -0.0000  -0.0000
    -0.0000  -0.0000  -0.0000  -0.0000  -0.0000  -0.0000  -0.0000  -0.0000
    -0.0000  -0.0000  -0.0000  -0.0000

          k = 0.2000 0.3464 0.0000 (  5376 PWs)   bands (ev):

   -51.4139 -51.3990 -27.7516 -27.7441 -27.5846 -27.5754 -27.5544 -27.5450
    -9.0802  -9.0329  -8.6348  -8.5826  -1.4188  -1.3036  -0.5784  -0.5490
    -0.2743  -0.1764   0.2942   0.4676   1.2894   1.3254   2.1535   2.3332
     3.0076   3.0380   5.7360   6.0706   6.5453   6.5932   6.6997   6.8712
     8.1511   8.2013  10.7425  11.1196  11.3618  11.5105  11.9713  12.3313
    12.6706  13.2077  13.2717  13.5984  14.0247  14.1049  14.4699  14.5500
    14.8165  15.2476  15.3801  15.6961  15.9144  17.2742  17.3248  17.3446
    18.0722  18.2460  18.9504  19.1864

     occupation numbers 
     1.0000   1.0000   1.0000   1.0000   1.0000   1.0000   1.0000   1.0000
     1.0000   1.0000   1.0000   1.0000   1.0000   1.0000   1.0000   1.0000
     1.0000   1.0000   1.0000   1.0000   1.0000   1.0000   1.0000   1.0000
     0.9712   0.9297  -0.0000  -0.0000  -0.0000  -0.0000  -0.0000  -0.0000
    -0.0000  -0.0000  -0.0000  -0.0000  -0.0000  -0.0000  -0.0000  -0.0000
    -0.0000  -0.0000  -0.0000  -0.0000  -0.0000  -0.0000  -0.0000  -0.0000
    -0.0000  -0.0000  -0.0000  -0.0000  -0.0000  -0.0000  -0.0000  -0.0000
    -0.0000  -0.0000  -0.0000  -0.0000

          k = 0.2000 0.4619 0.0000 (  5382 PWs)   bands (ev):

   -51.4047 -51.3898 -27.8083 -27.8013 -27.6075 -27.5985 -27.5647 -27.5553
    -8.6903  -8.6566  -8.4965  -8.4626  -1.5232  -1.4577  -1.2216  -1.1801
    -0.1995  -0.1312   0.3809   0.5223   0.8579   0.9103   1.8049   1.9654
     3.2471   3.2845   6.0213   6.2082   6.8146   6.9166   7.0713   7.1959
     8.2301   8.3427  10.3745  10.8857  11.5003  11.6862  11.8721  12.5563
    12.6233  12.8610  13.2075  13.8045  13.9259  14.3369  14.5368  15.0477
    15.2897  15.4542  15.7413  16.0841  16.4177  16.5798  16.7814  17.3159
    17.6504  18.1033  18.1950  18.5519

     occupation numbers 
     1.0000   1.0000   1.0000   1.0000   1.0000   1.0000   1.0000   1.0000
     1.0000   1.0000   1.0000   1.0000   1.0000   1.0000   1.0000   1.0000
     1.0000   1.0000   1.0000   1.0000   1.0000   1.0000   1.0000   1.0000
     0.3777   0.2701  -0.0000  -0.0000  -0.0000  -0.0000  -0.0000  -0.0000
    -0.0000  -0.0000  -0.0000  -0.0000  -0.0000  -0.0000  -0.0000  -0.0000
    -0.0000  -0.0000  -0.0000  -0.0000  -0.0000  -0.0000  -0.0000  -0.0000
    -0.0000  -0.0000  -0.0000  -0.0000  -0.0000  -0.0000  -0.0000  -0.0000
    -0.0000  -0.0000  -0.0000  -0.0000

          k = 0.2000 0.5774 0.0000 (  5358 PWs)   bands (ev):

   -51.4012 -51.3863 -27.8281 -27.8212 -27.6294 -27.6205 -27.5571 -27.5476
    -8.5299  -8.5066  -8.4371  -8.4122  -1.5217  -1.5049  -1.4681  -1.4218
    -0.3063  -0.2583   0.5161   0.6075   0.7418   0.8375   1.5763   1.7538
     3.4837   3.5406   5.9898   6.0162   7.0739   7.1761   7.3363   7.3768
     8.1448   8.3469   9.8002  10.4644  11.5500  12.2023  12.2595  12.4667
    12.8656  12.9677  13.2018  13.3588  14.0847  14.2713  14.6161  14.6512
    15.4131  15.4665  16.0492  16.1261  16.4041  16.8928  16.9704  17.0271
    17.8965  17.9837  18.1523  18.8083

     occupation numbers 
     1.0000   1.0000   1.0000   1.0000   1.0000   1.0000   1.0000   1.0000
     1.0000   1.0000   1.0000   1.0000   1.0000   1.0000   1.0000   1.0000
     1.0000   1.0000   1.0000   1.0000   1.0000   1.0000   1.0000   1.0000
    -0.0267  -0.0355  -0.0000  -0.0000  -0.0000  -0.0000  -0.0000  -0.0000
    -0.0000  -0.0000  -0.0000  -0.0000  -0.0000  -0.0000  -0.0000  -0.0000
    -0.0000  -0.0000  -0.0000  -0.0000  -0.0000  -0.0000  -0.0000  -0.0000
    -0.0000  -0.0000  -0.0000  -0.0000  -0.0000  -0.0000  -0.0000  -0.0000
    -0.0000  -0.0000  -0.0000  -0.0000

          k = 0.3000 0.5196 0.0000 (  5360 PWs)   bands (ev):

   -51.3998 -51.3849 -27.7890 -27.7821 -27.6857 -27.6770 -27.5542 -27.5447
    -8.4744  -8.4542  -8.4060  -8.3830  -1.6142  -1.5830  -1.1563  -1.0891
    -0.2625  -0.1382   0.0487   0.1404   0.6032   0.7308   1.5313   1.6065
     3.6791   3.6850   5.7084   5.7342   6.9846   7.0406   7.3848   7.5227
     8.5636   8.6054  10.3755  10.5346  11.0321  11.4312  12.1686  13.2336
    13.2914  13.5490  13.7397  14.3691  14.3981  14.7866  14.8000  15.1463
    15.2788  15.3257  15.5828  15.9315  16.0518  16.3259  16.5847  16.6435
    16.6983  17.3311  18.1190  18.5622

     occupation numbers 
     1.0000   1.0000   1.0000   1.0000   1.0000   1.0000   1.0000   1.0000
     1.0000   1.0000   1.0000   1.0000   1.0000   1.0000   1.0000   1.0000
     1.0000   1.0000   1.0000   1.0000   1.0000   1.0000   1.0000   1.0000
    -0.0171  -0.0162  -0.0000  -0.0000  -0.0000  -0.0000  -0.0000  -0.0000
    -0.0000  -0.0000  -0.0000  -0.0000  -0.0000  -0.0000  -0.0000  -0.0000
    -0.0000  -0.0000  -0.0000  -0.0000  -0.0000  -0.0000  -0.0000  -0.0000
    -0.0000  -0.0000  -0.0000  -0.0000  -0.0000  -0.0000  -0.0000  -0.0000
    -0.0000  -0.0000  -0.0000  -0.0000

     the Fermi energy is     3.2073 ev

!    total energy              =    -907.91153228 Ry

     total all-electron energy =    -18448.320554 Ry
     estimated scf accuracy    <          7.4E-10 Ry
     smearing contrib. (-TS)   =      -0.00213674 Ry
     internal energy E=F+TS    =    -907.90939554 Ry

     The total energy is F=E-TS. E is the sum of the following terms:
     one-electron contribution =   -1048.08294656 Ry
     hartree contribution      =     537.57090943 Ry
     xc contribution           =     -65.32325918 Ry
     ewald contribution        =     256.18108273 Ry
     one-center paw contrib.   =    -588.25518195 Ry
      -> PAW hartree energy AE =     100.87658575 Ry
      -> PAW hartree energy PS =    -100.36245948 Ry
      -> PAW xc energy AE      =    -324.79849586 Ry
      -> PAW xc energy PS      =      30.15759497 Ry
      -> total E_H with PAW    =     538.08503571 Ry
      -> total E_XC with PAW   =    -359.96416007 Ry

     convergence has been achieved in  14 iterations

     Writing output data file ./tmp/NbS2_bi.save/

     init_run     :      4.69s CPU      4.89s WALL (       1 calls)
     electrons    :    192.10s CPU    196.79s WALL (       1 calls)

     Called by init_run:
     wfcinit      :      3.31s CPU      3.35s WALL (       1 calls)
     wfcinit:atom :      0.02s CPU      0.02s WALL (      14 calls)
     wfcinit:wfcr :      3.23s CPU      3.26s WALL (      14 calls)
     potinit      :      0.32s CPU      0.33s WALL (       1 calls)
     hinit0       :      0.63s CPU      0.63s WALL (       1 calls)

     Called by electrons:
     c_bands      :    157.28s CPU    158.49s WALL (      15 calls)
     sum_band     :     27.10s CPU     29.13s WALL (      15 calls)
     v_of_rho     :      0.47s CPU      0.49s WALL (      15 calls)
     v_h          :      0.26s CPU      0.27s WALL (      15 calls)
     v_xc         :      0.21s CPU      0.23s WALL (      15 calls)
     newd         :      5.95s CPU      7.47s WALL (      15 calls)
     PAW_pot      :      0.88s CPU      0.88s WALL (      15 calls)
     mix_rho      :      0.53s CPU      0.54s WALL (      15 calls)

     Called by c_bands:
     init_us_2    :      0.64s CPU      0.66s WALL (     434 calls)
     cegterg      :    155.51s CPU    156.66s WALL (     210 calls)

     Called by sum_band:
     sum_band:wei :      0.02s CPU      0.02s WALL (      15 calls)
     sum_band:loo :     18.40s CPU     18.63s WALL (      15 calls)
     sum_band:buf :      0.28s CPU      0.28s WALL (     210 calls)
     sum_band:ini :      0.30s CPU      0.30s WALL (     210 calls)
     sum_band:cal :      4.60s CPU      4.63s WALL (     210 calls)
     sum_band:bec :      0.02s CPU      0.02s WALL (     210 calls)
     addusdens    :      8.32s CPU     10.10s WALL (      15 calls)
     addusd:skk   :      0.04s CPU      0.05s WALL (      30 calls)
     addusd:dgemm :      3.26s CPU      4.76s WALL (      30 calls)
     addusd:qvan2 :      4.55s CPU      4.55s WALL (      30 calls)

     Called by *egterg:
     cdiaghg      :      5.40s CPU      5.41s WALL (     950 calls)
     cegterg:over :     18.50s CPU     18.53s WALL (     754 calls)
     cegterg:upda :     10.10s CPU     10.12s WALL (     754 calls)
     cegterg:last :     28.45s CPU     28.48s WALL (     371 calls)
     h_psi        :     76.71s CPU     77.73s WALL (     978 calls)
     s_psi        :      9.91s CPU      9.94s WALL (     978 calls)
     g_psi        :      0.20s CPU      0.20s WALL (     754 calls)

     Called by h_psi:
     h_psi:calbec :     11.32s CPU     11.37s WALL (     978 calls)
     vloc_psi     :     55.14s CPU     56.08s WALL (     978 calls)
     add_vuspsi   :      9.67s CPU      9.70s WALL (     978 calls)

     General routines
     calbec       :     15.91s CPU     16.00s WALL (    1188 calls)
     fft          :      1.21s CPU      1.24s WALL (      89 calls)
     ffts         :      0.06s CPU      0.06s WALL (      30 calls)
     fftw         :     59.93s CPU     60.94s WALL (   72382 calls)
     interpolate  :      0.26s CPU      0.27s WALL (      15 calls)

     Parallel routines
     fft_scatt_xy :      6.73s CPU      6.84s WALL (   72501 calls)
     fft_scatt_yz :      4.84s CPU      4.93s WALL (   72501 calls)

     PAW routines
     PAW_pot      :      0.88s CPU      0.88s WALL (      15 calls)
     PAW_symme    :      0.00s CPU      0.00s WALL (      30 calls)

     PWSCF        :   3m17.93s CPU   3m23.32s WALL


   This run was terminated on:  16:51: 3  14Jun2021            

=------------------------------------------------------------------------------=
   JOB DONE.
=------------------------------------------------------------------------------=
