
     Program PWSCF v.6.6 starts on 14Jun2021 at 16:59:28 

     This program is part of the open-source Quantum ESPRESSO suite
     for quantum simulation of materials; please cite
         "P. Giannozzi et al., J. Phys.:Condens. Matter 21 395502 (2009);
         "P. Giannozzi et al., J. Phys.:Condens. Matter 29 465901 (2017);
          URL http://www.quantum-espresso.org", 
     in publications or presentations arising from this work. More details at
     http://www.quantum-espresso.org/quote

     Parallel version (MPI), running on     2 processors

     MPI processes distributed on     1 nodes
     R & G space division:  proc/nbgrp/npool/nimage =       2
     Fft bands division:     nmany     =       1
     Waiting for input...
     Reading input from standard input

     Current dimensions of program PWSCF are:
     Max number of different atomic species (ntypx) = 10
     Max number of k-points (npk) =  40000
     Max angular momentum in pseudopotentials (lmaxx) =  3
     file Nb.pz-spn-kjpaw_psl.1.0.0.UPF: wavefunction(s)  4S 4P 4D renormalized
     file S.pz-n-kjpaw_psl.0.1.UPF: wavefunction(s)  3P renormalized

     Subspace diagonalization in iterative solution of the eigenvalue problem:
     a serial algorithm will be used


     Parallelization info
     --------------------
     sticks:   dense  smooth     PW     G-vecs:    dense   smooth      PW
     Min         534     210     60                85019    21488    3542
     Max         535     211     61                85022    21517    3561
     Sum        1069     421    121               170041    43005    7103



     bravais-lattice index     =            4
     lattice parameter (alat)  =       6.2006  a.u.
     unit-cell volume          =    1258.4114 (a.u.)^3
     number of atoms/cell      =            6
     number of atomic types    =            2
     number of electrons       =        50.00
     number of Kohn-Sham states=           60
     kinetic-energy cutoff     =      40.0000  Ry
     charge density cutoff     =     400.0000  Ry
     convergence threshold     =      1.0E-08
     mixing beta               =       0.7000
     number of iterations used =            8  plain     mixing
     Exchange-correlation= SLA PZ NOGX NOGC
                           (   1   1   0   0   0   0   0)

     celldm(1)=   6.200569  celldm(2)=   0.000000  celldm(3)=   6.095331
     celldm(4)=   0.000000  celldm(5)=   0.000000  celldm(6)=   0.000000

     crystal axes: (cart. coord. in units of alat)
               a(1) = (   1.000000   0.000000   0.000000 )  
               a(2) = (  -0.500000   0.866025   0.000000 )  
               a(3) = (   0.000000   0.000000   6.095331 )  

     reciprocal axes: (cart. coord. in units 2 pi/alat)
               b(1) = (  1.000000  0.577350 -0.000000 )  
               b(2) = (  0.000000  1.154701  0.000000 )  
               b(3) = (  0.000000 -0.000000  0.164060 )  


     PseudoPot. # 1 for Nb read from file:
     ../Nb.pz-spn-kjpaw_psl.1.0.0.UPF
     MD5 check sum: 38c2e04b3cc915696ca8dc9f46a23270
     Pseudo is Projector augmented-wave + core cor, Zval = 13.0
     Generated using "atomic" code by A. Dal Corso v.6.2.2
     Shape of augmentation charge: PSQ
     Using radial grid of 1227 points,  6 beta functions with: 
                l(1) =   0
                l(2) =   0
                l(3) =   1
                l(4) =   1
                l(5) =   2
                l(6) =   2
     Q(r) pseudized with 0 coefficients 


     PseudoPot. # 2 for S  read from file:
     ../S.pz-n-kjpaw_psl.0.1.UPF
     MD5 check sum: c0b1682311cf098e03f7841691d9a679
     Pseudo is Projector augmented-wave + core cor, Zval =  6.0
     Generated using "atomic" code by A. Dal Corso v.5.0.2 svn rev. 9415
     Shape of augmentation charge: PSQ
     Using radial grid of 1151 points,  4 beta functions with: 
                l(1) =   0
                l(2) =   0
                l(3) =   1
                l(4) =   1
     Q(r) pseudized with 0 coefficients 


     atomic species   valence    mass     pseudopotential
        Nb            13.00    92.90600     Nb( 1.00)
        S              6.00    32.06500     S ( 1.00)

      6 Sym. Ops. (no inversion) found


                                    s                        frac. trans.

      isym =  1     identity                                     

 cryst.   s( 1) = (     1          0          0      )
                  (     0          1          0      )
                  (     0          0          1      )

 cart.    s( 1) = (  1.0000000  0.0000000  0.0000000 )
                  (  0.0000000  1.0000000  0.0000000 )
                  (  0.0000000  0.0000000  1.0000000 )


      isym =  2     120 deg rotation - cryst. axis [0,0,1]       

 cryst.   s( 2) = (     0          1          0      )
                  (    -1         -1          0      )
                  (     0          0          1      )

 cart.    s( 2) = ( -0.5000000 -0.8660254  0.0000000 )
                  (  0.8660254 -0.5000000  0.0000000 )
                  (  0.0000000  0.0000000  1.0000000 )


      isym =  3     120 deg rotation - cryst. axis [0,0,-1]      

 cryst.   s( 3) = (    -1         -1          0      )
                  (     1          0          0      )
                  (     0          0          1      )

 cart.    s( 3) = ( -0.5000000  0.8660254  0.0000000 )
                  ( -0.8660254 -0.5000000  0.0000000 )
                  (  0.0000000  0.0000000  1.0000000 )


      isym =  4     inv. 180 deg rotation - cart. axis [1,0,0]   

 cryst.   s( 4) = (    -1          0          0      )
                  (     1          1          0      )
                  (     0          0          1      )

 cart.    s( 4) = ( -1.0000000  0.0000000  0.0000000 )
                  (  0.0000000  1.0000000  0.0000000 )
                  (  0.0000000  0.0000000  1.0000000 )


      isym =  5     inv. 180 deg rotation - cryst. axis [0,1,0]  

 cryst.   s( 5) = (     1          1          0      )
                  (     0         -1          0      )
                  (     0          0          1      )

 cart.    s( 5) = (  0.5000000  0.8660254  0.0000000 )
                  (  0.8660254 -0.5000000  0.0000000 )
                  (  0.0000000  0.0000000  1.0000000 )


      isym =  6     inv. 180 deg rotation - cryst. axis [1,1,0]  

 cryst.   s( 6) = (     0         -1          0      )
                  (    -1          0          0      )
                  (     0          0          1      )

 cart.    s( 6) = (  0.5000000 -0.8660254  0.0000000 )
                  ( -0.8660254 -0.5000000  0.0000000 )
                  (  0.0000000  0.0000000  1.0000000 )


     point group C_3v (3m)  
     there are  3 classes
     the character table:

       E     2C3   3s_v 
A_1    1.00  1.00  1.00
A_2    1.00  1.00 -1.00
E      2.00 -1.00  0.00

     the symmetry operations in each class and the name of the first element:

     E        1
          identity                                               
     2C3      2    3
          120 deg rotation - cryst. axis [0,0,1]                 
     3s_v     4    5    6
          inv. 180 deg rotation - cart. axis [1,0,0]             

   Cartesian axes

     site n.     atom                  positions (alat units)
         1           S   tau(   1) = (   0.0000000   0.5773503   1.4932768  )
         2           Nb  tau(   2) = (   0.0000000   0.0000000   1.0094618  )
         3           S   tau(   3) = (   0.0000000   0.5773503   0.5321904  )
         4           S   tau(   4) = (   0.5000000   0.2886751   2.5511139  )
         5           Nb  tau(   5) = (   0.0000000   0.0000000   3.0283905  )
         6           S   tau(   6) = (   0.5000000   0.2886751   3.5056620  )

   Crystallographic axes

     site n.     atom                  positions (cryst. coord.)
         1           S   tau(   1) = (  0.3333333  0.6666667  0.2449870  )
         2           Nb  tau(   2) = (  0.0000000  0.0000000  0.1656123  )
         3           S   tau(   3) = (  0.3333333  0.6666667  0.0873112  )
         4           S   tau(   4) = (  0.6666667  0.3333333  0.4185358  )
         5           Nb  tau(   5) = (  0.0000000  0.0000000  0.4968378  )
         6           S   tau(   6) = (  0.6666667  0.3333333  0.5751389  )

     number of k points=    21  Methfessel-Paxton smearing, width (Ry)=  0.0200
                       cart. coord. in units 2pi/alat
        k(    1) = (   0.0000000   0.0000000   0.0000000), wk =   0.0118343
        k(    2) = (   0.0000000   0.0888231   0.0000000), wk =   0.0710059
        k(    3) = (   0.0000000   0.1776462   0.0000000), wk =   0.0710059
        k(    4) = (   0.0000000   0.2664694   0.0000000), wk =   0.0710059
        k(    5) = (   0.0000000   0.3552925   0.0000000), wk =   0.0710059
        k(    6) = (   0.0000000   0.4441156   0.0000000), wk =   0.0710059
        k(    7) = (   0.0000000   0.5329387   0.0000000), wk =   0.0710059
        k(    8) = (   0.0769231   0.1332347   0.0000000), wk =   0.0710059
        k(    9) = (   0.0769231   0.2220578   0.0000000), wk =   0.1420118
        k(   10) = (   0.0769231   0.3108809   0.0000000), wk =   0.1420118
        k(   11) = (   0.0769231   0.3997040   0.0000000), wk =   0.1420118
        k(   12) = (   0.0769231   0.4885272   0.0000000), wk =   0.1420118
        k(   13) = (   0.0769231   0.5773503   0.0000000), wk =   0.0710059
        k(   14) = (   0.1538462   0.2664694   0.0000000), wk =   0.0710059
        k(   15) = (   0.1538462   0.3552925   0.0000000), wk =   0.1420118
        k(   16) = (   0.1538462   0.4441156   0.0000000), wk =   0.1420118
        k(   17) = (   0.1538462   0.5329387   0.0000000), wk =   0.1420118
        k(   18) = (   0.2307692   0.3997040   0.0000000), wk =   0.0710059
        k(   19) = (   0.2307692   0.4885272   0.0000000), wk =   0.1420118
        k(   20) = (   0.2307692   0.5773503   0.0000000), wk =   0.0710059
        k(   21) = (   0.3076923   0.5329387   0.0000000), wk =   0.0710059

                       cryst. coord.
        k(    1) = (   0.0000000   0.0000000   0.0000000), wk =   0.0118343
        k(    2) = (   0.0000000   0.0769231   0.0000000), wk =   0.0710059
        k(    3) = (   0.0000000   0.1538462   0.0000000), wk =   0.0710059
        k(    4) = (   0.0000000   0.2307692   0.0000000), wk =   0.0710059
        k(    5) = (   0.0000000   0.3076923   0.0000000), wk =   0.0710059
        k(    6) = (   0.0000000   0.3846154   0.0000000), wk =   0.0710059
        k(    7) = (   0.0000000   0.4615385   0.0000000), wk =   0.0710059
        k(    8) = (   0.0769231   0.0769231   0.0000000), wk =   0.0710059
        k(    9) = (   0.0769231   0.1538462   0.0000000), wk =   0.1420118
        k(   10) = (   0.0769231   0.2307692   0.0000000), wk =   0.1420118
        k(   11) = (   0.0769231   0.3076923   0.0000000), wk =   0.1420118
        k(   12) = (   0.0769231   0.3846154   0.0000000), wk =   0.1420118
        k(   13) = (   0.0769231   0.4615385   0.0000000), wk =   0.0710059
        k(   14) = (   0.1538462   0.1538462   0.0000000), wk =   0.0710059
        k(   15) = (   0.1538462   0.2307692   0.0000000), wk =   0.1420118
        k(   16) = (   0.1538462   0.3076923   0.0000000), wk =   0.1420118
        k(   17) = (   0.1538462   0.3846154   0.0000000), wk =   0.1420118
        k(   18) = (   0.2307692   0.2307692   0.0000000), wk =   0.0710059
        k(   19) = (   0.2307692   0.3076923   0.0000000), wk =   0.1420118
        k(   20) = (   0.2307692   0.3846154   0.0000000), wk =   0.0710059
        k(   21) = (   0.3076923   0.3076923   0.0000000), wk =   0.0710059

     Dense  grid:   170041 G-vectors     FFT dimensions: (  40,  40, 243)

     Smooth grid:    43005 G-vectors     FFT dimensions: (  25,  25, 160)

     Dynamical RAM for                 wfc:       2.46 MB

     Dynamical RAM for     wfc (w. buffer):      54.14 MB

     Dynamical RAM for           str. fact:       2.59 MB

     Dynamical RAM for           local pot:       0.00 MB

     Dynamical RAM for          nlocal pot:       2.79 MB

     Dynamical RAM for                qrad:       3.21 MB

     Dynamical RAM for          rho,v,vnew:       8.36 MB

     Dynamical RAM for               rhoin:       2.79 MB

     Dynamical RAM for            rho*nmix:      20.76 MB

     Dynamical RAM for           G-vectors:       5.03 MB

     Dynamical RAM for          h,s,v(r/c):       0.66 MB

     Dynamical RAM for          <psi|beta>:       0.06 MB

     Dynamical RAM for                 psi:       4.92 MB

     Dynamical RAM for                hpsi:       4.92 MB

     Dynamical RAM for                spsi:       4.92 MB

     Dynamical RAM for      wfcinit/wfcrot:       5.00 MB

     Dynamical RAM for           addusdens:     246.48 MB

     Estimated static dynamical RAM per process >     111.00 MB

     Estimated max dynamical RAM per process >     357.49 MB

     Estimated total dynamical RAM >     714.98 MB

     Initial potential from superposition of free atoms

     starting charge   49.99775, renormalised to   50.00000

     negative rho (up, down):  7.872E-05 0.000E+00
     Starting wfcs are   42 randomized atomic wfcs +   18 random wfcs
     Checking if some PAW data can be deallocated... 

     total cpu time spent up to now is        7.8 secs

     Self-consistent Calculation

     iteration #  1     ecut=    40.00 Ry     beta= 0.70
     Davidson diagonalization with overlap
     ethr =  1.00E-02,  avg # of iterations =  7.7

     Threshold (ethr) on eigenvalues was too large:
     Diagonalizing with lowered threshold

     Davidson diagonalization with overlap
     ethr =  5.35E-04,  avg # of iterations =  1.9

     negative rho (up, down):  1.253E-04 0.000E+00

     total cpu time spent up to now is       60.8 secs

     total energy              =    -907.81159366 Ry
     estimated scf accuracy    <       0.26855456 Ry

     iteration #  2     ecut=    40.00 Ry     beta= 0.70
     Davidson diagonalization with overlap
     ethr =  5.37E-04,  avg # of iterations =  6.1

     negative rho (up, down):  1.427E-04 0.000E+00

     total cpu time spent up to now is       84.3 secs

     total energy              =    -907.49718876 Ry
     estimated scf accuracy    <       2.98703929 Ry

     iteration #  3     ecut=    40.00 Ry     beta= 0.70
     Davidson diagonalization with overlap
     ethr =  5.37E-04,  avg # of iterations =  7.4

     negative rho (up, down):  1.217E-04 0.000E+00

     total cpu time spent up to now is      107.6 secs

     total energy              =    -906.82188903 Ry
     estimated scf accuracy    <      40.28238841 Ry

     iteration #  4     ecut=    40.00 Ry     beta= 0.70
     Davidson diagonalization with overlap
     ethr =  5.37E-04,  avg # of iterations =  7.3

     negative rho (up, down):  1.218E-04 0.000E+00

     total cpu time spent up to now is      130.4 secs

     total energy              =    -907.89524790 Ry
     estimated scf accuracy    <       0.13713503 Ry

     iteration #  5     ecut=    40.00 Ry     beta= 0.70
     Davidson diagonalization with overlap
     ethr =  2.74E-04,  avg # of iterations =  2.0

     negative rho (up, down):  1.241E-04 0.000E+00

     total cpu time spent up to now is      148.3 secs

     total energy              =    -907.90754173 Ry
     estimated scf accuracy    <       0.10370297 Ry

     iteration #  6     ecut=    40.00 Ry     beta= 0.70
     Davidson diagonalization with overlap
     ethr =  2.07E-04,  avg # of iterations =  1.6

     negative rho (up, down):  1.257E-04 0.000E+00

     total cpu time spent up to now is      164.4 secs

     total energy              =    -907.90766582 Ry
     estimated scf accuracy    <       0.05875314 Ry

     iteration #  7     ecut=    40.00 Ry     beta= 0.70
     Davidson diagonalization with overlap
     ethr =  1.18E-04,  avg # of iterations =  1.7

     negative rho (up, down):  1.277E-04 0.000E+00

     total cpu time spent up to now is      180.6 secs

     total energy              =    -907.91061969 Ry
     estimated scf accuracy    <       0.01283637 Ry

     iteration #  8     ecut=    40.00 Ry     beta= 0.70
     Davidson diagonalization with overlap
     ethr =  2.57E-05,  avg # of iterations =  4.4

     negative rho (up, down):  1.293E-04 0.000E+00

     total cpu time spent up to now is      199.0 secs

     total energy              =    -907.91127838 Ry
     estimated scf accuracy    <       0.00147084 Ry

     iteration #  9     ecut=    40.00 Ry     beta= 0.70
     Davidson diagonalization with overlap
     ethr =  2.94E-06,  avg # of iterations =  7.5

     negative rho (up, down):  1.316E-04 0.000E+00

     total cpu time spent up to now is      219.2 secs

     total energy              =    -907.91129775 Ry
     estimated scf accuracy    <       0.00376804 Ry

     iteration # 10     ecut=    40.00 Ry     beta= 0.70
     Davidson diagonalization with overlap
     ethr =  2.94E-06,  avg # of iterations =  1.0

     negative rho (up, down):  1.318E-04 0.000E+00

     total cpu time spent up to now is      234.3 secs

     total energy              =    -907.91149021 Ry
     estimated scf accuracy    <       0.00161779 Ry

     iteration # 11     ecut=    40.00 Ry     beta= 0.70
     Davidson diagonalization with overlap
     ethr =  2.94E-06,  avg # of iterations =  1.0

     negative rho (up, down):  1.320E-04 0.000E+00

     total cpu time spent up to now is      249.7 secs

     total energy              =    -907.91152150 Ry
     estimated scf accuracy    <       0.00007289 Ry

     iteration # 12     ecut=    40.00 Ry     beta= 0.70
     Davidson diagonalization with overlap
     ethr =  1.46E-07,  avg # of iterations =  1.0

     negative rho (up, down):  1.321E-04 0.000E+00

     total cpu time spent up to now is      264.9 secs

     total energy              =    -907.91152261 Ry
     estimated scf accuracy    <       0.00000047 Ry

     iteration # 13     ecut=    40.00 Ry     beta= 0.70
     Davidson diagonalization with overlap
     ethr =  9.38E-10,  avg # of iterations =  1.3

     negative rho (up, down):  1.321E-04 0.000E+00

     total cpu time spent up to now is      280.8 secs

     total energy              =    -907.91152263 Ry
     estimated scf accuracy    <       0.00000001 Ry

     iteration # 14     ecut=    40.00 Ry     beta= 0.70
     Davidson diagonalization with overlap
     ethr =  2.41E-11,  avg # of iterations =  2.9

     negative rho (up, down):  1.321E-04 0.000E+00

     total cpu time spent up to now is      300.0 secs

     End of self-consistent calculation

          k = 0.0000 0.0000 0.0000 (  5429 PWs)   bands (ev):

   -51.4503 -51.4366 -27.6631 -27.6559 -27.4324 -27.4324 -27.4229 -27.4229
   -10.3510 -10.2863  -9.0610  -8.9609  -2.1129  -1.8087   0.9725   0.9725
     1.0230   1.0230   1.3931   2.0769   2.0769   2.1167   2.1167   2.1292
     3.8434   4.2770   6.3257   6.3257   6.3687   6.3687   6.5029   6.5029
     6.5372   6.5372   8.5508   8.7285   9.0065   9.6094  11.3532  11.5626
    11.6238  11.9812  13.8544  13.8544  13.8797  13.8797  14.0207  15.7614
    15.7997  15.7997  16.0491  16.0491  16.1263  17.1020  18.0537  18.5256
    18.6688  18.6688  18.8019  19.1718

     occupation numbers 
     1.0000   1.0000   1.0000   1.0000   1.0000   1.0000   1.0000   1.0000
     1.0000   1.0000   1.0000   1.0000   1.0000   1.0000   1.0000   1.0000
     1.0000   1.0000   1.0000   1.0000   1.0000   1.0000   1.0000   1.0000
    -0.0024  -0.0000  -0.0000  -0.0000  -0.0000  -0.0000  -0.0000  -0.0000
    -0.0000  -0.0000  -0.0000  -0.0000  -0.0000  -0.0000  -0.0000  -0.0000
    -0.0000  -0.0000  -0.0000  -0.0000  -0.0000  -0.0000  -0.0000  -0.0000
    -0.0000  -0.0000  -0.0000  -0.0000  -0.0000  -0.0000  -0.0000  -0.0000
    -0.0000  -0.0000  -0.0000  -0.0000

          k = 0.0000 0.0888 0.0000 (  5395 PWs)   bands (ev):

   -51.4478 -51.4340 -27.6575 -27.6502 -27.4589 -27.4497 -27.4383 -27.4288
   -10.2696 -10.2054  -9.0341  -8.9369  -2.0159  -1.7122   0.7581   0.8059
     1.0551   1.1047   1.1457   1.5734   1.9380   1.9789   2.2006   2.4795
     3.8061   4.1644   6.2486   6.2883   6.3193   6.3976   6.4020   6.4673
     6.5201   6.5408   8.8351   9.1050   9.2586   9.7697  11.4907  11.7790
    12.0216  12.2181  13.4647  13.6536  14.0984  14.1411  14.2076  15.0976
    15.3777  15.7721  15.8688  16.0616  16.1168  17.1270  17.8382  18.4138
    18.6693  18.8466  19.0466  19.0765

     occupation numbers 
     1.0000   1.0000   1.0000   1.0000   1.0000   1.0000   1.0000   1.0000
     1.0000   1.0000   1.0000   1.0000   1.0000   1.0000   1.0000   1.0000
     1.0000   1.0000   1.0000   1.0000   1.0000   1.0000   1.0000   1.0005
    -0.0041  -0.0000  -0.0000  -0.0000  -0.0000  -0.0000  -0.0000  -0.0000
    -0.0000  -0.0000  -0.0000  -0.0000  -0.0000  -0.0000  -0.0000  -0.0000
    -0.0000  -0.0000  -0.0000  -0.0000  -0.0000  -0.0000  -0.0000  -0.0000
    -0.0000  -0.0000  -0.0000  -0.0000  -0.0000  -0.0000  -0.0000  -0.0000
    -0.0000  -0.0000  -0.0000  -0.0000

          k = 0.0000 0.1776 0.0000 (  5357 PWs)   bands (ev):

   -51.4406 -51.4268 -27.6421 -27.6346 -27.5318 -27.5232 -27.4544 -27.4451
   -10.0377  -9.9753  -8.9575  -8.8686  -1.7593  -1.4610   0.2559   0.2969
     0.6690   0.9668   1.2847   1.3288   1.6022   1.6482   2.2115   2.5554
     3.6213   3.8119   5.9163   6.1823   6.2519   6.2609   6.3098   6.4028
     6.9104   6.9514   9.2559   9.7805  10.1094  10.4296  11.8190  11.9799
    12.8367  12.8814  12.9776  13.1683  14.1127  14.3400  14.6995  14.7701
    14.8477  15.6140  15.7919  15.8768  16.1586  17.0240  17.1420  17.9578
    17.9799  18.3807  18.5496  18.9845

     occupation numbers 
     1.0000   1.0000   1.0000   1.0000   1.0000   1.0000   1.0000   1.0000
     1.0000   1.0000   1.0000   1.0000   1.0000   1.0000   1.0000   1.0000
     1.0000   1.0000   1.0000   1.0000   1.0000   1.0000   1.0000   1.0018
    -0.0269  -0.0037  -0.0000  -0.0000  -0.0000  -0.0000  -0.0000  -0.0000
    -0.0000  -0.0000  -0.0000  -0.0000  -0.0000  -0.0000  -0.0000  -0.0000
    -0.0000  -0.0000  -0.0000  -0.0000  -0.0000  -0.0000  -0.0000  -0.0000
    -0.0000  -0.0000  -0.0000  -0.0000  -0.0000  -0.0000  -0.0000  -0.0000
    -0.0000  -0.0000  -0.0000  -0.0000

          k = 0.0000 0.2665 0.0000 (  5369 PWs)   bands (ev):

   -51.4306 -51.4167 -27.6332 -27.6254 -27.6202 -27.6126 -27.4772 -27.4680
    -9.6921  -9.6333  -8.8435  -8.7673  -1.4905  -1.2320  -0.2352  -0.2040
     0.1371   0.3462   1.2094   1.2464   1.6064   1.6584   2.0244   2.3829
     3.2282   3.3229   5.8157   6.1156   6.1709   6.2000   6.4944   6.7205
     7.3608   7.4205   9.7474  10.2526  10.8138  11.4411  11.9394  12.3826
    12.4600  12.5956  12.7962  13.1421  14.2419  14.6489  15.0026  15.1206
    15.5703  15.5948  15.7359  16.0159  16.4546  16.5446  16.7628  17.1904
    17.4337  17.7679  18.0573  19.0213

     occupation numbers 
     1.0000   1.0000   1.0000   1.0000   1.0000   1.0000   1.0000   1.0000
     1.0000   1.0000   1.0000   1.0000   1.0000   1.0000   1.0000   1.0000
     1.0000   1.0000   1.0000   1.0000   1.0000   1.0000   1.0000   1.0001
     0.4398   0.1774  -0.0000  -0.0000  -0.0000  -0.0000  -0.0000  -0.0000
    -0.0000  -0.0000  -0.0000  -0.0000  -0.0000  -0.0000  -0.0000  -0.0000
    -0.0000  -0.0000  -0.0000  -0.0000  -0.0000  -0.0000  -0.0000  -0.0000
    -0.0000  -0.0000  -0.0000  -0.0000  -0.0000  -0.0000  -0.0000  -0.0000
    -0.0000  -0.0000  -0.0000  -0.0000

          k = 0.0000 0.3553 0.0000 (  5379 PWs)   bands (ev):

   -51.4198 -51.4059 -27.7388 -27.7318 -27.5970 -27.5890 -27.5012 -27.4922
    -9.2937  -9.2416  -8.7131  -8.6527  -1.5339  -1.3969  -0.4756  -0.3589
    -0.3123  -0.2013   0.8592   0.8999   1.7917   1.9323   1.9797   2.1502
     2.8808   2.9646   6.0163   6.1030   6.1469   6.3757   6.8741   7.1308
     7.7245   7.8090  10.2755  10.6373  10.9052  11.2566  11.4897  11.9761
    12.0146  12.7482  13.1073  13.6964  14.2113  14.8610  15.1592  15.1829
    15.3919  15.7255  15.8578  16.5930  16.6643  16.8896  17.0805  17.5396
    17.6036  17.8617  17.9718  18.2065

     occupation numbers 
     1.0000   1.0000   1.0000   1.0000   1.0000   1.0000   1.0000   1.0000
     1.0000   1.0000   1.0000   1.0000   1.0000   1.0000   1.0000   1.0000
     1.0000   1.0000   1.0000   1.0000   1.0000   1.0000   1.0000   1.0000
     1.0354   1.0109  -0.0000  -0.0000  -0.0000  -0.0000  -0.0000  -0.0000
    -0.0000  -0.0000  -0.0000  -0.0000  -0.0000  -0.0000  -0.0000  -0.0000
    -0.0000  -0.0000  -0.0000  -0.0000  -0.0000  -0.0000  -0.0000  -0.0000
    -0.0000  -0.0000  -0.0000  -0.0000  -0.0000  -0.0000  -0.0000  -0.0000
    -0.0000  -0.0000  -0.0000  -0.0000

          k = 0.0000 0.4441 0.0000 (  5379 PWs)   bands (ev):

   -51.4109 -51.3969 -27.8249 -27.8186 -27.5776 -27.5694 -27.5210 -27.5121
    -8.9293  -8.8874  -8.5958  -8.5515  -1.8308  -1.7622  -0.8459  -0.7103
    -0.3635  -0.3078   0.6041   0.6461   1.6288   1.9799   2.1757   2.2240
     2.8496   2.9539   6.2272   6.2536   6.3699   6.6183   7.1743   7.4372
     7.9526   8.0605  10.2031  10.3783  10.8903  11.0082  11.1310  11.6909
    11.9758  12.8656  13.2304  13.7600  13.9114  14.4421  14.5687  14.9519
    15.1466  15.6665  16.4409  16.8710  17.1353  17.2721  17.4560  17.9384
    18.1600  18.5473  18.7644  18.8602

     occupation numbers 
     1.0000   1.0000   1.0000   1.0000   1.0000   1.0000   1.0000   1.0000
     1.0000   1.0000   1.0000   1.0000   1.0000   1.0000   1.0000   1.0000
     1.0000   1.0000   1.0000   1.0000   1.0000   1.0000   1.0000   1.0000
     1.0342   1.0172  -0.0000  -0.0000  -0.0000  -0.0000  -0.0000  -0.0000
    -0.0000  -0.0000  -0.0000  -0.0000  -0.0000  -0.0000  -0.0000  -0.0000
    -0.0000  -0.0000  -0.0000  -0.0000  -0.0000  -0.0000  -0.0000  -0.0000
    -0.0000  -0.0000  -0.0000  -0.0000  -0.0000  -0.0000  -0.0000  -0.0000
    -0.0000  -0.0000  -0.0000  -0.0000

          k = 0.0000 0.5329 0.0000 (  5374 PWs)   bands (ev):

   -51.4058 -51.3918 -27.8729 -27.8671 -27.5667 -27.5583 -27.5321 -27.5233
    -8.7046  -8.6732  -8.5244  -8.4917  -2.0424  -1.9995  -1.0837  -0.9583
    -0.4077  -0.3782   0.4710   0.5135   1.5553   1.8988   2.2964   2.3474
     3.0050   3.1179   6.3698   6.3826   6.7201   6.8124   7.2770   7.5753
     8.0558   8.1779   9.4055   9.8983  11.0134  11.0728  11.3641  11.6459
    12.3019  12.7381  13.2631  13.4951  13.6488  14.0197  14.1985  14.3997
    15.0511  15.2081  16.3026  16.9290  17.5362  17.8085  17.8089  18.4975
    18.6921  18.9797  19.6056  19.8561

     occupation numbers 
     1.0000   1.0000   1.0000   1.0000   1.0000   1.0000   1.0000   1.0000
     1.0000   1.0000   1.0000   1.0000   1.0000   1.0000   1.0000   1.0000
     1.0000   1.0000   1.0000   1.0000   1.0000   1.0000   1.0000   1.0000
     0.9758   0.7661  -0.0000  -0.0000  -0.0000  -0.0000  -0.0000  -0.0000
    -0.0000  -0.0000  -0.0000  -0.0000  -0.0000  -0.0000  -0.0000  -0.0000
    -0.0000  -0.0000  -0.0000  -0.0000  -0.0000  -0.0000  -0.0000  -0.0000
    -0.0000  -0.0000  -0.0000  -0.0000  -0.0000  -0.0000  -0.0000  -0.0000
    -0.0000  -0.0000  -0.0000  -0.0000

          k = 0.0769 0.1332 0.0000 (  5369 PWs)   bands (ev):

   -51.4429 -51.4291 -27.6471 -27.6396 -27.5075 -27.4987 -27.4504 -27.4411
   -10.1129 -10.0498  -8.9823  -8.8907  -1.8372  -1.5360   0.4069   0.4501
     0.8281   1.1675   1.2051   1.2516   1.6199   1.6593   2.3075   2.6193
     3.6959   3.9296   6.0050   6.1829   6.2107   6.2592   6.3121   6.3884
     6.8262   6.8696   9.1450   9.6333   9.8617  10.1802  11.7230  11.9463
    12.6500  12.7584  13.0644  13.3647  14.2068  14.4074  14.5403  14.5685
    14.7795  15.5544  15.8620  15.9184  16.0768  17.2076  17.5743  17.9860
    18.2210  18.4876  18.6296  19.1185

     occupation numbers 
     1.0000   1.0000   1.0000   1.0000   1.0000   1.0000   1.0000   1.0000
     1.0000   1.0000   1.0000   1.0000   1.0000   1.0000   1.0000   1.0000
     1.0000   1.0000   1.0000   1.0000   1.0000   1.0000   1.0000   1.0045
    -0.0148  -0.0006  -0.0000  -0.0000  -0.0000  -0.0000  -0.0000  -0.0000
    -0.0000  -0.0000  -0.0000  -0.0000  -0.0000  -0.0000  -0.0000  -0.0000
    -0.0000  -0.0000  -0.0000  -0.0000  -0.0000  -0.0000  -0.0000  -0.0000
    -0.0000  -0.0000  -0.0000  -0.0000  -0.0000  -0.0000  -0.0000  -0.0000
    -0.0000  -0.0000  -0.0000  -0.0000

          k = 0.0769 0.2221 0.0000 (  5369 PWs)   bands (ev):

   -51.4343 -51.4204 -27.6285 -27.6208 -27.5916 -27.5835 -27.4729 -27.4637
    -9.8236  -9.7632  -8.8865  -8.8054  -1.5568  -1.2718  -0.0753  -0.0424
     0.3969   0.6406   1.1365   1.1844   1.4492   1.5008   2.2937   2.5956
     3.4031   3.5004   5.7693   6.0300   6.1765   6.2643   6.2949   6.4685
     7.2987   7.3562   9.5774  10.1305  10.7676  11.1783  12.0274  12.1873
    12.5931  12.8921  13.0249  13.2355  14.1298  14.2126  14.6341  14.9269
    15.0287  15.5228  15.6611  15.9727  16.0704  16.7863  17.1331  17.4057
    17.5926  18.0555  18.3747  19.3059

     occupation numbers 
     1.0000   1.0000   1.0000   1.0000   1.0000   1.0000   1.0000   1.0000
     1.0000   1.0000   1.0000   1.0000   1.0000   1.0000   1.0000   1.0000
     1.0000   1.0000   1.0000   1.0000   1.0000   1.0000   1.0000   1.0032
     0.0353  -0.0310  -0.0000  -0.0000  -0.0000  -0.0000  -0.0000  -0.0000
    -0.0000  -0.0000  -0.0000  -0.0000  -0.0000  -0.0000  -0.0000  -0.0000
    -0.0000  -0.0000  -0.0000  -0.0000  -0.0000  -0.0000  -0.0000  -0.0000
    -0.0000  -0.0000  -0.0000  -0.0000  -0.0000  -0.0000  -0.0000  -0.0000
    -0.0000  -0.0000  -0.0000  -0.0000

          k = 0.0769 0.3109 0.0000 (  5364 PWs)   bands (ev):

   -51.4239 -51.4100 -27.6912 -27.6839 -27.6059 -27.5980 -27.5000 -27.4910
    -9.4498  -9.3946  -8.7627  -8.6959  -1.4190  -1.2250  -0.3808  -0.3185
    -0.1146   0.0348   0.7595   0.8439   1.6845   1.7287   2.0956   2.3860
     3.0360   3.0944   5.7587   5.9930   6.2256   6.3827   6.5857   6.7978
     7.7222   7.7792  10.1191  10.5728  11.1142  11.6713  11.8868  12.2235
    12.3952  12.6589  13.1142  13.2080  14.2922  14.8039  14.8419  14.9875
    15.1801  15.4649  15.6530  15.9963  16.1644  16.7367  16.8830  17.5254
    17.7123  17.8987  18.2745  19.0517

     occupation numbers 
     1.0000   1.0000   1.0000   1.0000   1.0000   1.0000   1.0000   1.0000
     1.0000   1.0000   1.0000   1.0000   1.0000   1.0000   1.0000   1.0000
     1.0000   1.0000   1.0000   1.0000   1.0000   1.0000   1.0000   1.0001
     0.9352   0.8233  -0.0000  -0.0000  -0.0000  -0.0000  -0.0000  -0.0000
    -0.0000  -0.0000  -0.0000  -0.0000  -0.0000  -0.0000  -0.0000  -0.0000
    -0.0000  -0.0000  -0.0000  -0.0000  -0.0000  -0.0000  -0.0000  -0.0000
    -0.0000  -0.0000  -0.0000  -0.0000  -0.0000  -0.0000  -0.0000  -0.0000
    -0.0000  -0.0000  -0.0000  -0.0000

          k = 0.0769 0.3997 0.0000 (  5382 PWs)   bands (ev):

   -51.4141 -51.4001 -27.7835 -27.7769 -27.5845 -27.5764 -27.5255 -27.5166
    -9.0644  -9.0178  -8.6361  -8.5852  -1.6290  -1.5364  -0.6782  -0.5566
    -0.3312  -0.2626   0.5566   0.6363   1.8026   1.8588   1.8671   2.1372
     2.9149   2.9842   5.9637   6.1395   6.4174   6.5483   6.9783   7.1943
     7.9645   8.0090  10.5959  10.7870  10.9282  11.1536  11.3696  11.9365
    12.0828  12.9316  13.1920  13.9305  14.0902  14.2185  14.7089  15.0768
    15.3220  15.4228  15.9874  16.4143  16.5834  17.1313  17.4911  17.5228
    18.0756  18.2321  18.5026  18.6971

     occupation numbers 
     1.0000   1.0000   1.0000   1.0000   1.0000   1.0000   1.0000   1.0000
     1.0000   1.0000   1.0000   1.0000   1.0000   1.0000   1.0000   1.0000
     1.0000   1.0000   1.0000   1.0000   1.0000   1.0000   1.0000   1.0000
     1.0316   0.9963  -0.0000  -0.0000  -0.0000  -0.0000  -0.0000  -0.0000
    -0.0000  -0.0000  -0.0000  -0.0000  -0.0000  -0.0000  -0.0000  -0.0000
    -0.0000  -0.0000  -0.0000  -0.0000  -0.0000  -0.0000  -0.0000  -0.0000
    -0.0000  -0.0000  -0.0000  -0.0000  -0.0000  -0.0000  -0.0000  -0.0000
    -0.0000  -0.0000  -0.0000  -0.0000

          k = 0.0769 0.4885 0.0000 (  5390 PWs)   bands (ev):

   -51.4071 -51.3930 -27.8481 -27.8420 -27.5693 -27.5610 -27.5435 -27.5347
    -8.7639  -8.7285  -8.5383  -8.5019  -1.8841  -1.8337  -1.0437  -0.9361
    -0.3552  -0.3204   0.4694   0.5268   1.6443   1.9144   1.9373   1.9802
     3.0563   3.1479   6.2433   6.3284   6.6628   6.7533   7.3050   7.5156
     7.9521   8.0458   9.8156  10.2901  11.1841  11.2963  11.4568  11.8355
    12.2177  12.9584  13.2942  13.4771  13.6918  13.8663  14.2203  14.6227
    15.4371  15.5196  16.1944  16.7535  17.1238  17.4975  17.6988  17.9696
    18.1625  18.6811  18.9393  19.2855

     occupation numbers 
     1.0000   1.0000   1.0000   1.0000   1.0000   1.0000   1.0000   1.0000
     1.0000   1.0000   1.0000   1.0000   1.0000   1.0000   1.0000   1.0000
     1.0000   1.0000   1.0000   1.0000   1.0000   1.0000   1.0000   1.0000
     0.9015   0.6842  -0.0000  -0.0000  -0.0000  -0.0000  -0.0000  -0.0000
    -0.0000  -0.0000  -0.0000  -0.0000  -0.0000  -0.0000  -0.0000  -0.0000
    -0.0000  -0.0000  -0.0000  -0.0000  -0.0000  -0.0000  -0.0000  -0.0000
    -0.0000  -0.0000  -0.0000  -0.0000  -0.0000  -0.0000  -0.0000  -0.0000
    -0.0000  -0.0000  -0.0000  -0.0000

          k = 0.0769 0.5774 0.0000 (  5376 PWs)   bands (ev):

   -51.4045 -51.3905 -27.8712 -27.8653 -27.5638 -27.5554 -27.5499 -27.5412
    -8.6481  -8.6194  -8.5006  -8.4706  -1.9841  -1.9487  -1.1775  -1.0732
    -0.3920  -0.3703   0.4477   0.4927   1.5746   1.8865   1.9525   2.0085
     3.1681   3.2681   6.3517   6.3799   6.8405   6.8914   7.4347   7.6913
     7.8487   8.0056   9.3687   9.9580  11.3549  11.4142  11.7239  11.8330
    12.5344  12.6263  12.9276  13.4715  13.6612  13.7964  14.2245  14.2564
    15.0688  15.2960  16.3576  16.7921  17.4505  17.6119  17.7201  18.2838
    18.6509  18.8612  19.3784  19.4952

     occupation numbers 
     1.0000   1.0000   1.0000   1.0000   1.0000   1.0000   1.0000   1.0000
     1.0000   1.0000   1.0000   1.0000   1.0000   1.0000   1.0000   1.0000
     1.0000   1.0000   1.0000   1.0000   1.0000   1.0000   1.0000   1.0000
     0.6250   0.3204  -0.0000  -0.0000  -0.0000  -0.0000  -0.0000  -0.0000
    -0.0000  -0.0000  -0.0000  -0.0000  -0.0000  -0.0000  -0.0000  -0.0000
    -0.0000  -0.0000  -0.0000  -0.0000  -0.0000  -0.0000  -0.0000  -0.0000
    -0.0000  -0.0000  -0.0000  -0.0000  -0.0000  -0.0000  -0.0000  -0.0000
    -0.0000  -0.0000  -0.0000  -0.0000

          k = 0.1538 0.2665 0.0000 (  5376 PWs)   bands (ev):

   -51.4254 -51.4114 -27.6687 -27.6612 -27.6091 -27.6012 -27.5052 -27.4962
    -9.5049  -9.4487  -8.7797  -8.7106  -1.3691  -1.1446  -0.3423  -0.2958
     0.0838   0.1967   0.5590   0.6700   1.5393   1.5807   2.3209   2.5627
     3.1304   3.1448   5.6441   5.9028   6.2512   6.3808   6.4175   6.6086
     7.7689   7.8333  10.0668  10.5761  11.3886  11.9554  12.1010  12.4784
    12.4865  12.8817  12.9385  13.0288  14.2321  14.4934  14.6964  14.7264
    14.8039  15.1873  15.2594  16.0237  16.0895  16.6637  16.7102  17.7392
    17.9044  18.1718  18.3086  19.6267

     occupation numbers 
     1.0000   1.0000   1.0000   1.0000   1.0000   1.0000   1.0000   1.0000
     1.0000   1.0000   1.0000   1.0000   1.0000   1.0000   1.0000   1.0000
     1.0000   1.0000   1.0000   1.0000   1.0000   1.0000   1.0000   1.0020
     0.7329   0.6930  -0.0000  -0.0000  -0.0000  -0.0000  -0.0000  -0.0000
    -0.0000  -0.0000  -0.0000  -0.0000  -0.0000  -0.0000  -0.0000  -0.0000
    -0.0000  -0.0000  -0.0000  -0.0000  -0.0000  -0.0000  -0.0000  -0.0000
    -0.0000  -0.0000  -0.0000  -0.0000  -0.0000  -0.0000  -0.0000  -0.0000
    -0.0000  -0.0000  -0.0000  -0.0000

          k = 0.1538 0.3553 0.0000 (  5379 PWs)   bands (ev):

   -51.4159 -51.4019 -27.7464 -27.7396 -27.5884 -27.5803 -27.5422 -27.5335
    -9.1396  -9.0904  -8.6562  -8.6016  -1.4309  -1.3094  -0.5127  -0.4491
    -0.2934  -0.2123   0.3494   0.5076   1.4244   1.4624   2.1403   2.3456
     2.9910   3.0245   5.7317   6.0376   6.4858   6.5598   6.6948   6.8763
     8.0804   8.1333  10.6393  11.0210  11.3443  11.4832  11.9186  12.2535
    12.5420  13.1656  13.1917  13.6326  14.0479  14.2143  14.5243  14.7246
    14.8602  15.1525  15.4611  15.6801  16.0852  17.2365  17.2889  17.4585
    18.1233  18.2702  18.7299  18.9181

     occupation numbers 
     1.0000   1.0000   1.0000   1.0000   1.0000   1.0000   1.0000   1.0000
     1.0000   1.0000   1.0000   1.0000   1.0000   1.0000   1.0000   1.0000
     1.0000   1.0000   1.0000   1.0000   1.0000   1.0000   1.0000   1.0000
     0.9902   0.9518  -0.0000  -0.0000  -0.0000  -0.0000  -0.0000  -0.0000
    -0.0000  -0.0000  -0.0000  -0.0000  -0.0000  -0.0000  -0.0000  -0.0000
    -0.0000  -0.0000  -0.0000  -0.0000  -0.0000  -0.0000  -0.0000  -0.0000
    -0.0000  -0.0000  -0.0000  -0.0000  -0.0000  -0.0000  -0.0000  -0.0000
    -0.0000  -0.0000  -0.0000  -0.0000

          k = 0.1538 0.4441 0.0000 (  5378 PWs)   bands (ev):

   -51.4079 -51.3939 -27.8090 -27.8026 -27.5740 -27.5713 -27.5654 -27.5629
    -8.8089  -8.7700  -8.5434  -8.5037  -1.6146  -1.5464  -1.0201  -0.9573
    -0.2537  -0.1942   0.3696   0.4987   1.2694   1.3198   1.8548   2.0634
     3.1115   3.1641   6.0161   6.2670   6.7043   6.7318   7.0554   7.2175
     8.0997   8.2166  10.4115  10.8769  11.3785  11.5543  11.6861  12.2304
    12.4730  12.9732  13.3891  13.5229  13.6846  14.1641  14.2749  15.0324
    15.3607  15.4458  15.8511  16.3214  16.4343  16.7699  17.2441  17.6710
    17.7703  18.1883  18.3523  18.9121

     occupation numbers 
     1.0000   1.0000   1.0000   1.0000   1.0000   1.0000   1.0000   1.0000
     1.0000   1.0000   1.0000   1.0000   1.0000   1.0000   1.0000   1.0000
     1.0000   1.0000   1.0000   1.0000   1.0000   1.0000   1.0000   1.0000
     0.7822   0.6370  -0.0000  -0.0000  -0.0000  -0.0000  -0.0000  -0.0000
    -0.0000  -0.0000  -0.0000  -0.0000  -0.0000  -0.0000  -0.0000  -0.0000
    -0.0000  -0.0000  -0.0000  -0.0000  -0.0000  -0.0000  -0.0000  -0.0000
    -0.0000  -0.0000  -0.0000  -0.0000  -0.0000  -0.0000  -0.0000  -0.0000
    -0.0000  -0.0000  -0.0000  -0.0000

          k = 0.1538 0.5329 0.0000 (  5378 PWs)   bands (ev):

   -51.4035 -51.3894 -27.8437 -27.8376 -27.5921 -27.5837 -27.5616 -27.5531
    -8.6076  -8.5790  -8.4736  -8.4447  -1.7219  -1.6896  -1.3093  -1.2444
    -0.3182  -0.2892   0.4508   0.5333   1.2235   1.2997   1.6319   1.8622
     3.3174   3.3906   6.1657   6.2259   6.9145   7.0519   7.3842   7.4736
     7.9038   8.1477   9.7116  10.3643  11.7862  11.9625  12.1749  12.2359
    12.5158  12.6721  12.9632  13.3179  13.7837  14.0809  14.1014  14.7111
    15.2663  15.6807  16.1425  16.3232  16.8522  17.1087  17.3177  17.5373
    17.9428  18.3698  18.6248  19.0359

     occupation numbers 
     1.0000   1.0000   1.0000   1.0000   1.0000   1.0000   1.0000   1.0000
     1.0000   1.0000   1.0000   1.0000   1.0000   1.0000   1.0000   1.0000
     1.0000   1.0000   1.0000   1.0000   1.0000   1.0000   1.0000   1.0000
     0.1902   0.0517  -0.0000  -0.0000  -0.0000  -0.0000  -0.0000  -0.0000
    -0.0000  -0.0000  -0.0000  -0.0000  -0.0000  -0.0000  -0.0000  -0.0000
    -0.0000  -0.0000  -0.0000  -0.0000  -0.0000  -0.0000  -0.0000  -0.0000
    -0.0000  -0.0000  -0.0000  -0.0000  -0.0000  -0.0000  -0.0000  -0.0000
    -0.0000  -0.0000  -0.0000  -0.0000

          k = 0.2308 0.3997 0.0000 (  5366 PWs)   bands (ev):

   -51.4083 -51.3942 -27.7867 -27.7802 -27.5933 -27.5849 -27.5720 -27.5637
    -8.8256  -8.7855  -8.5442  -8.5032  -1.4699  -1.3831  -1.0035  -0.9746
    -0.1788  -0.0796   0.3104   0.4760   0.9328   0.9582   1.9730   2.1196
     3.1242   3.1538   5.9141   6.2285   6.7220   6.7436   6.8924   7.0416
     8.2807   8.3280  10.8411  11.0713  11.4368  11.4702  11.8153  12.4807
    12.7497  12.9587  13.1375  13.6617  14.1824  14.3305  14.6156  14.9579
    15.1613  15.3529  15.4848  15.5723  15.9416  16.8790  17.1203  17.4149
    17.7613  18.0699  18.1920  19.0692

     occupation numbers 
     1.0000   1.0000   1.0000   1.0000   1.0000   1.0000   1.0000   1.0000
     1.0000   1.0000   1.0000   1.0000   1.0000   1.0000   1.0000   1.0000
     1.0000   1.0000   1.0000   1.0000   1.0000   1.0000   1.0000   1.0000
     0.7497   0.6673  -0.0000  -0.0000  -0.0000  -0.0000  -0.0000  -0.0000
    -0.0000  -0.0000  -0.0000  -0.0000  -0.0000  -0.0000  -0.0000  -0.0000
    -0.0000  -0.0000  -0.0000  -0.0000  -0.0000  -0.0000  -0.0000  -0.0000
    -0.0000  -0.0000  -0.0000  -0.0000  -0.0000  -0.0000  -0.0000  -0.0000
    -0.0000  -0.0000  -0.0000  -0.0000

          k = 0.2308 0.4885 0.0000 (  5367 PWs)   bands (ev):

   -51.4029 -51.3888 -27.8077 -27.8014 -27.6369 -27.6288 -27.5603 -27.5518
    -8.5874  -8.5582  -8.4553  -8.4265  -1.4355  -1.3987  -1.3840  -1.3496
    -0.1917  -0.1119   0.4496   0.5353   0.5908   0.6099   1.6984   1.8303
     3.4041   3.4321   5.9643   6.0584   6.9268   7.0598   7.1533   7.2637
     8.3387   8.4381  10.2837  10.7749  11.3454  11.7698  11.9793  12.7286
    12.8419  13.0472  13.2455  14.0676  14.1765  14.4882  14.7109  15.0059
    15.2601  15.4822  15.8310  15.9556  16.3039  16.4210  16.6347  16.9551
    17.5240  17.8528  17.8929  18.6285

     occupation numbers 
     1.0000   1.0000   1.0000   1.0000   1.0000   1.0000   1.0000   1.0000
     1.0000   1.0000   1.0000   1.0000   1.0000   1.0000   1.0000   1.0000
     1.0000   1.0000   1.0000   1.0000   1.0000   1.0000   1.0000   1.0000
     0.0341   0.0049  -0.0000  -0.0000  -0.0000  -0.0000  -0.0000  -0.0000
    -0.0000  -0.0000  -0.0000  -0.0000  -0.0000  -0.0000  -0.0000  -0.0000
    -0.0000  -0.0000  -0.0000  -0.0000  -0.0000  -0.0000  -0.0000  -0.0000
    -0.0000  -0.0000  -0.0000  -0.0000  -0.0000  -0.0000  -0.0000  -0.0000
    -0.0000  -0.0000  -0.0000  -0.0000

          k = 0.2308 0.5774 0.0000 (  5358 PWs)   bands (ev):

   -51.4009 -51.3868 -27.8133 -27.8072 -27.6545 -27.6465 -27.5560 -27.5475
    -8.4979  -8.4755  -8.4201  -8.3961  -1.5500  -1.5115  -1.3602  -1.3383
    -0.2985  -0.2297   0.4349   0.5393   0.5649   0.6663   1.5458   1.6831
     3.5788   3.6210   5.8534   5.8761   7.0760   7.1161   7.3375   7.4440
     8.3317   8.4796   9.9489  10.5800  11.2378  11.9135  12.2447  12.7787
    13.1850  13.2158  13.4981  13.6076  14.3356  14.3796  14.7614  14.8778
    15.3852  15.4909  15.7685  15.8794  16.4382  16.5998  16.6364  16.8702
    17.5700  17.5998  18.1272  18.7240

     occupation numbers 
     1.0000   1.0000   1.0000   1.0000   1.0000   1.0000   1.0000   1.0000
     1.0000   1.0000   1.0000   1.0000   1.0000   1.0000   1.0000   1.0000
     1.0000   1.0000   1.0000   1.0000   1.0000   1.0000   1.0000   1.0000
    -0.0331  -0.0270  -0.0000  -0.0000  -0.0000  -0.0000  -0.0000  -0.0000
    -0.0000  -0.0000  -0.0000  -0.0000  -0.0000  -0.0000  -0.0000  -0.0000
    -0.0000  -0.0000  -0.0000  -0.0000  -0.0000  -0.0000  -0.0000  -0.0000
    -0.0000  -0.0000  -0.0000  -0.0000  -0.0000  -0.0000  -0.0000  -0.0000
    -0.0000  -0.0000  -0.0000  -0.0000

          k = 0.3077 0.5329 0.0000 (  5360 PWs)   bands (ev):

   -51.4000 -51.3859 -27.7845 -27.7784 -27.6951 -27.6871 -27.5541 -27.5455
    -8.4591  -8.4395  -8.3989  -8.3760  -1.6442  -1.6122  -1.0873  -1.0207
    -0.3168  -0.2127   0.0155   0.0943   0.6344   0.7593   1.5000   1.5629
     3.7292   3.7357   5.6501   5.6734   6.9846   7.0312   7.4447   7.5604
     8.5940   8.6338  10.3614  10.5442  10.9336  11.3984  12.1979  13.3460
    13.3949  13.6267  13.8852  14.3171  14.4122  14.7538  14.8276  15.0853
    15.2446  15.4498  15.5688  15.8614  16.1028  16.3594  16.4700  16.6255
    16.6305  17.2367  18.2334  18.5508

     occupation numbers 
     1.0000   1.0000   1.0000   1.0000   1.0000   1.0000   1.0000   1.0000
     1.0000   1.0000   1.0000   1.0000   1.0000   1.0000   1.0000   1.0000
     1.0000   1.0000   1.0000   1.0000   1.0000   1.0000   1.0000   1.0000
    -0.0105  -0.0098  -0.0000  -0.0000  -0.0000  -0.0000  -0.0000  -0.0000
    -0.0000  -0.0000  -0.0000  -0.0000  -0.0000  -0.0000  -0.0000  -0.0000
    -0.0000  -0.0000  -0.0000  -0.0000  -0.0000  -0.0000  -0.0000  -0.0000
    -0.0000  -0.0000  -0.0000  -0.0000  -0.0000  -0.0000  -0.0000  -0.0000
    -0.0000  -0.0000  -0.0000  -0.0000

     the Fermi energy is     3.2088 ev

!    total energy              =    -907.91152263 Ry

     total all-electron energy =    -18448.320545 Ry
     estimated scf accuracy    <          3.5E-10 Ry
     smearing contrib. (-TS)   =      -0.00180462 Ry
     internal energy E=F+TS    =    -907.90971801 Ry

     The total energy is F=E-TS. E is the sum of the following terms:
     one-electron contribution =   -1048.08234362 Ry
     hartree contribution      =     537.56987914 Ry
     xc contribution           =     -65.32315168 Ry
     ewald contribution        =     256.18108273 Ry
     one-center paw contrib.   =    -588.25518459 Ry
      -> PAW hartree energy AE =     100.87569928 Ry
      -> PAW hartree energy PS =    -100.36157622 Ry
      -> PAW xc energy AE      =    -324.79847198 Ry
      -> PAW xc energy PS      =      30.15757192 Ry
      -> total E_H with PAW    =     538.08400220 Ry
      -> total E_XC with PAW   =    -359.96405174 Ry

     convergence has been achieved in  14 iterations

     Writing output data file ./tmp/NbS2_bi.save/

     init_run     :      6.53s CPU      6.72s WALL (       1 calls)
     electrons    :    287.10s CPU    292.28s WALL (       1 calls)

     Called by init_run:
     wfcinit      :      5.04s CPU      5.09s WALL (       1 calls)
     wfcinit:atom :      0.02s CPU      0.02s WALL (      21 calls)
     wfcinit:wfcr :      4.90s CPU      4.96s WALL (      21 calls)
     potinit      :      0.33s CPU      0.35s WALL (       1 calls)
     hinit0       :      0.64s CPU      0.65s WALL (       1 calls)

     Called by electrons:
     c_bands      :    242.97s CPU    244.67s WALL (      15 calls)
     sum_band     :     36.40s CPU     38.46s WALL (      15 calls)
     v_of_rho     :      0.48s CPU      0.50s WALL (      15 calls)
     v_h          :      0.27s CPU      0.27s WALL (      15 calls)
     v_xc         :      0.21s CPU      0.23s WALL (      15 calls)
     newd         :      6.08s CPU      7.53s WALL (      15 calls)
     PAW_pot      :      0.87s CPU      0.87s WALL (      15 calls)
     mix_rho      :      0.50s CPU      0.54s WALL (      15 calls)

     Called by c_bands:
     init_us_2    :      0.98s CPU      1.00s WALL (     651 calls)
     cegterg      :    240.32s CPU    241.94s WALL (     315 calls)

     Called by sum_band:
     sum_band:wei :      0.02s CPU      0.02s WALL (      15 calls)
     sum_band:loo :     27.71s CPU     28.03s WALL (      15 calls)
     sum_band:buf :      0.42s CPU      0.42s WALL (     315 calls)
     sum_band:ini :      0.45s CPU      0.45s WALL (     315 calls)
     sum_band:cal :      7.15s CPU      7.18s WALL (     315 calls)
     sum_band:bec :      0.04s CPU      0.04s WALL (     315 calls)
     addusdens    :      8.30s CPU     10.03s WALL (      15 calls)
     addusd:skk   :      0.05s CPU      0.05s WALL (      30 calls)
     addusd:dgemm :      3.34s CPU      4.80s WALL (      30 calls)
     addusd:qvan2 :      4.44s CPU      4.45s WALL (      30 calls)

     Called by *egterg:
     cdiaghg      :      8.41s CPU      8.43s WALL (    1444 calls)
     cegterg:over :     28.13s CPU     28.18s WALL (    1150 calls)
     cegterg:upda :     15.53s CPU     15.56s WALL (    1150 calls)
     cegterg:last :     45.28s CPU     45.33s WALL (     565 calls)
     h_psi        :    117.55s CPU    119.00s WALL (    1486 calls)
     s_psi        :     15.73s CPU     15.77s WALL (    1486 calls)
     g_psi        :      0.31s CPU      0.31s WALL (    1150 calls)

     Called by h_psi:
     h_psi:calbec :     17.26s CPU     17.33s WALL (    1486 calls)
     vloc_psi     :     83.86s CPU     85.19s WALL (    1486 calls)
     add_vuspsi   :     15.60s CPU     15.62s WALL (    1486 calls)

     General routines
     calbec       :     24.40s CPU     24.50s WALL (    1801 calls)
     fft          :      1.27s CPU      1.31s WALL (      89 calls)
     ffts         :      0.05s CPU      0.05s WALL (      30 calls)
     fftw         :     91.43s CPU     92.87s WALL (  109294 calls)
     interpolate  :      0.26s CPU      0.26s WALL (      15 calls)

     Parallel routines
     fft_scatt_xy :     10.28s CPU     10.44s WALL (  109413 calls)
     fft_scatt_yz :      7.60s CPU      7.77s WALL (  109413 calls)

     PAW routines
     PAW_pot      :      0.87s CPU      0.87s WALL (      15 calls)
     PAW_symme    :      0.00s CPU      0.00s WALL (      30 calls)

     PWSCF        :   4m54.82s CPU   5m 0.91s WALL


   This run was terminated on:  17: 4:29  14Jun2021            

=------------------------------------------------------------------------------=
   JOB DONE.
=------------------------------------------------------------------------------=
