
     Program PWSCF v.6.6 starts on 14Jun2021 at 16:51: 4 

     This program is part of the open-source Quantum ESPRESSO suite
     for quantum simulation of materials; please cite
         "P. Giannozzi et al., J. Phys.:Condens. Matter 21 395502 (2009);
         "P. Giannozzi et al., J. Phys.:Condens. Matter 29 465901 (2017);
          URL http://www.quantum-espresso.org", 
     in publications or presentations arising from this work. More details at
     http://www.quantum-espresso.org/quote

     Parallel version (MPI), running on     2 processors

     MPI processes distributed on     1 nodes
     R & G space division:  proc/nbgrp/npool/nimage =       2
     Fft bands division:     nmany     =       1
     Waiting for input...
     Reading input from standard input

     Current dimensions of program PWSCF are:
     Max number of different atomic species (ntypx) = 10
     Max number of k-points (npk) =  40000
     Max angular momentum in pseudopotentials (lmaxx) =  3
     file Nb.pz-spn-kjpaw_psl.1.0.0.UPF: wavefunction(s)  4S 4P 4D renormalized
     file S.pz-n-kjpaw_psl.0.1.UPF: wavefunction(s)  3P renormalized

     Subspace diagonalization in iterative solution of the eigenvalue problem:
     a serial algorithm will be used


     Parallelization info
     --------------------
     sticks:   dense  smooth     PW     G-vecs:    dense   smooth      PW
     Min         534     210     60                85019    21488    3554
     Max         535     211     61                85022    21517    3573
     Sum        1069     421    121               170041    43005    7127



     bravais-lattice index     =            4
     lattice parameter (alat)  =       6.2006  a.u.
     unit-cell volume          =    1258.4114 (a.u.)^3
     number of atoms/cell      =            6
     number of atomic types    =            2
     number of electrons       =        50.00
     number of Kohn-Sham states=           60
     kinetic-energy cutoff     =      40.0000  Ry
     charge density cutoff     =     400.0000  Ry
     convergence threshold     =      1.0E-08
     mixing beta               =       0.7000
     number of iterations used =            8  plain     mixing
     Exchange-correlation= SLA PZ NOGX NOGC
                           (   1   1   0   0   0   0   0)

     celldm(1)=   6.200569  celldm(2)=   0.000000  celldm(3)=   6.095331
     celldm(4)=   0.000000  celldm(5)=   0.000000  celldm(6)=   0.000000

     crystal axes: (cart. coord. in units of alat)
               a(1) = (   1.000000   0.000000   0.000000 )  
               a(2) = (  -0.500000   0.866025   0.000000 )  
               a(3) = (   0.000000   0.000000   6.095331 )  

     reciprocal axes: (cart. coord. in units 2 pi/alat)
               b(1) = (  1.000000  0.577350 -0.000000 )  
               b(2) = (  0.000000  1.154701  0.000000 )  
               b(3) = (  0.000000 -0.000000  0.164060 )  


     PseudoPot. # 1 for Nb read from file:
     ../Nb.pz-spn-kjpaw_psl.1.0.0.UPF
     MD5 check sum: 38c2e04b3cc915696ca8dc9f46a23270
     Pseudo is Projector augmented-wave + core cor, Zval = 13.0
     Generated using "atomic" code by A. Dal Corso v.6.2.2
     Shape of augmentation charge: PSQ
     Using radial grid of 1227 points,  6 beta functions with: 
                l(1) =   0
                l(2) =   0
                l(3) =   1
                l(4) =   1
                l(5) =   2
                l(6) =   2
     Q(r) pseudized with 0 coefficients 


     PseudoPot. # 2 for S  read from file:
     ../S.pz-n-kjpaw_psl.0.1.UPF
     MD5 check sum: c0b1682311cf098e03f7841691d9a679
     Pseudo is Projector augmented-wave + core cor, Zval =  6.0
     Generated using "atomic" code by A. Dal Corso v.5.0.2 svn rev. 9415
     Shape of augmentation charge: PSQ
     Using radial grid of 1151 points,  4 beta functions with: 
                l(1) =   0
                l(2) =   0
                l(3) =   1
                l(4) =   1
     Q(r) pseudized with 0 coefficients 


     atomic species   valence    mass     pseudopotential
        Nb            13.00    92.90600     Nb( 1.00)
        S              6.00    32.06500     S ( 1.00)

      6 Sym. Ops. (no inversion) found


                                    s                        frac. trans.

      isym =  1     identity                                     

 cryst.   s( 1) = (     1          0          0      )
                  (     0          1          0      )
                  (     0          0          1      )

 cart.    s( 1) = (  1.0000000  0.0000000  0.0000000 )
                  (  0.0000000  1.0000000  0.0000000 )
                  (  0.0000000  0.0000000  1.0000000 )


      isym =  2     120 deg rotation - cryst. axis [0,0,1]       

 cryst.   s( 2) = (     0          1          0      )
                  (    -1         -1          0      )
                  (     0          0          1      )

 cart.    s( 2) = ( -0.5000000 -0.8660254  0.0000000 )
                  (  0.8660254 -0.5000000  0.0000000 )
                  (  0.0000000  0.0000000  1.0000000 )


      isym =  3     120 deg rotation - cryst. axis [0,0,-1]      

 cryst.   s( 3) = (    -1         -1          0      )
                  (     1          0          0      )
                  (     0          0          1      )

 cart.    s( 3) = ( -0.5000000  0.8660254  0.0000000 )
                  ( -0.8660254 -0.5000000  0.0000000 )
                  (  0.0000000  0.0000000  1.0000000 )


      isym =  4     inv. 180 deg rotation - cart. axis [1,0,0]   

 cryst.   s( 4) = (    -1          0          0      )
                  (     1          1          0      )
                  (     0          0          1      )

 cart.    s( 4) = ( -1.0000000  0.0000000  0.0000000 )
                  (  0.0000000  1.0000000  0.0000000 )
                  (  0.0000000  0.0000000  1.0000000 )


      isym =  5     inv. 180 deg rotation - cryst. axis [0,1,0]  

 cryst.   s( 5) = (     1          1          0      )
                  (     0         -1          0      )
                  (     0          0          1      )

 cart.    s( 5) = (  0.5000000  0.8660254  0.0000000 )
                  (  0.8660254 -0.5000000  0.0000000 )
                  (  0.0000000  0.0000000  1.0000000 )


      isym =  6     inv. 180 deg rotation - cryst. axis [1,1,0]  

 cryst.   s( 6) = (     0         -1          0      )
                  (    -1          0          0      )
                  (     0          0          1      )

 cart.    s( 6) = (  0.5000000 -0.8660254  0.0000000 )
                  ( -0.8660254 -0.5000000  0.0000000 )
                  (  0.0000000  0.0000000  1.0000000 )


     point group C_3v (3m)  
     there are  3 classes
     the character table:

       E     2C3   3s_v 
A_1    1.00  1.00  1.00
A_2    1.00  1.00 -1.00
E      2.00 -1.00  0.00

     the symmetry operations in each class and the name of the first element:

     E        1
          identity                                               
     2C3      2    3
          120 deg rotation - cryst. axis [0,0,1]                 
     3s_v     4    5    6
          inv. 180 deg rotation - cart. axis [1,0,0]             

   Cartesian axes

     site n.     atom                  positions (alat units)
         1           S   tau(   1) = (   0.0000000   0.5773503   1.4932768  )
         2           Nb  tau(   2) = (   0.0000000   0.0000000   1.0094618  )
         3           S   tau(   3) = (   0.0000000   0.5773503   0.5321904  )
         4           S   tau(   4) = (   0.5000000   0.2886751   2.5511139  )
         5           Nb  tau(   5) = (   0.0000000   0.0000000   3.0283905  )
         6           S   tau(   6) = (   0.5000000   0.2886751   3.5056620  )

   Crystallographic axes

     site n.     atom                  positions (cryst. coord.)
         1           S   tau(   1) = (  0.3333333  0.6666667  0.2449870  )
         2           Nb  tau(   2) = (  0.0000000  0.0000000  0.1656123  )
         3           S   tau(   3) = (  0.3333333  0.6666667  0.0873112  )
         4           S   tau(   4) = (  0.6666667  0.3333333  0.4185358  )
         5           Nb  tau(   5) = (  0.0000000  0.0000000  0.4968378  )
         6           S   tau(   6) = (  0.6666667  0.3333333  0.5751389  )

     number of k points=    16  Methfessel-Paxton smearing, width (Ry)=  0.0200
                       cart. coord. in units 2pi/alat
        k(    1) = (   0.0000000   0.0000000   0.0000000), wk =   0.0165289
        k(    2) = (   0.0000000   0.1049728   0.0000000), wk =   0.0991736
        k(    3) = (   0.0000000   0.2099456   0.0000000), wk =   0.0991736
        k(    4) = (   0.0000000   0.3149183   0.0000000), wk =   0.0991736
        k(    5) = (   0.0000000   0.4198911   0.0000000), wk =   0.0991736
        k(    6) = (   0.0000000   0.5248639   0.0000000), wk =   0.0991736
        k(    7) = (   0.0909091   0.1574592   0.0000000), wk =   0.0991736
        k(    8) = (   0.0909091   0.2624319   0.0000000), wk =   0.1983471
        k(    9) = (   0.0909091   0.3674047   0.0000000), wk =   0.1983471
        k(   10) = (   0.0909091   0.4723775   0.0000000), wk =   0.1983471
        k(   11) = (   0.0909091   0.5773503   0.0000000), wk =   0.0991736
        k(   12) = (   0.1818182   0.3149183   0.0000000), wk =   0.0991736
        k(   13) = (   0.1818182   0.4198911   0.0000000), wk =   0.1983471
        k(   14) = (   0.1818182   0.5248639   0.0000000), wk =   0.1983471
        k(   15) = (   0.2727273   0.4723775   0.0000000), wk =   0.0991736
        k(   16) = (   0.2727273   0.5773503   0.0000000), wk =   0.0991736

                       cryst. coord.
        k(    1) = (   0.0000000   0.0000000   0.0000000), wk =   0.0165289
        k(    2) = (   0.0000000   0.0909091   0.0000000), wk =   0.0991736
        k(    3) = (   0.0000000   0.1818182   0.0000000), wk =   0.0991736
        k(    4) = (   0.0000000   0.2727273   0.0000000), wk =   0.0991736
        k(    5) = (   0.0000000   0.3636364   0.0000000), wk =   0.0991736
        k(    6) = (   0.0000000   0.4545455   0.0000000), wk =   0.0991736
        k(    7) = (   0.0909091   0.0909091   0.0000000), wk =   0.0991736
        k(    8) = (   0.0909091   0.1818182   0.0000000), wk =   0.1983471
        k(    9) = (   0.0909091   0.2727273   0.0000000), wk =   0.1983471
        k(   10) = (   0.0909091   0.3636364   0.0000000), wk =   0.1983471
        k(   11) = (   0.0909091   0.4545455   0.0000000), wk =   0.0991736
        k(   12) = (   0.1818182   0.1818182   0.0000000), wk =   0.0991736
        k(   13) = (   0.1818182   0.2727273   0.0000000), wk =   0.1983471
        k(   14) = (   0.1818182   0.3636364   0.0000000), wk =   0.1983471
        k(   15) = (   0.2727273   0.2727273   0.0000000), wk =   0.0991736
        k(   16) = (   0.2727273   0.3636364   0.0000000), wk =   0.0991736

     Dense  grid:   170041 G-vectors     FFT dimensions: (  40,  40, 243)

     Smooth grid:    43005 G-vectors     FFT dimensions: (  25,  25, 160)

     Dynamical RAM for                 wfc:       2.46 MB

     Dynamical RAM for     wfc (w. buffer):      41.84 MB

     Dynamical RAM for           str. fact:       2.59 MB

     Dynamical RAM for           local pot:       0.00 MB

     Dynamical RAM for          nlocal pot:       2.79 MB

     Dynamical RAM for                qrad:       3.21 MB

     Dynamical RAM for          rho,v,vnew:       8.36 MB

     Dynamical RAM for               rhoin:       2.79 MB

     Dynamical RAM for            rho*nmix:      20.76 MB

     Dynamical RAM for           G-vectors:       5.03 MB

     Dynamical RAM for          h,s,v(r/c):       0.66 MB

     Dynamical RAM for          <psi|beta>:       0.06 MB

     Dynamical RAM for                 psi:       4.92 MB

     Dynamical RAM for                hpsi:       4.92 MB

     Dynamical RAM for                spsi:       4.92 MB

     Dynamical RAM for      wfcinit/wfcrot:       5.00 MB

     Dynamical RAM for           addusdens:     246.48 MB

     Estimated static dynamical RAM per process >      98.70 MB

     Estimated max dynamical RAM per process >     345.18 MB

     Estimated total dynamical RAM >     690.37 MB

     Initial potential from superposition of free atoms

     starting charge   49.99775, renormalised to   50.00000

     negative rho (up, down):  7.872E-05 0.000E+00
     Starting wfcs are   42 randomized atomic wfcs +   18 random wfcs
     Checking if some PAW data can be deallocated... 

     total cpu time spent up to now is        6.5 secs

     Self-consistent Calculation

     iteration #  1     ecut=    40.00 Ry     beta= 0.70
     Davidson diagonalization with overlap
     ethr =  1.00E-02,  avg # of iterations =  7.9

     Threshold (ethr) on eigenvalues was too large:
     Diagonalizing with lowered threshold

     Davidson diagonalization with overlap
     ethr =  5.35E-04,  avg # of iterations =  1.9

     negative rho (up, down):  1.253E-04 0.000E+00

     total cpu time spent up to now is       47.0 secs

     total energy              =    -907.81162629 Ry
     estimated scf accuracy    <       0.26845587 Ry

     iteration #  2     ecut=    40.00 Ry     beta= 0.70
     Davidson diagonalization with overlap
     ethr =  5.37E-04,  avg # of iterations =  6.0

     negative rho (up, down):  1.427E-04 0.000E+00

     total cpu time spent up to now is       65.1 secs

     total energy              =    -907.49630415 Ry
     estimated scf accuracy    <       2.97578971 Ry

     iteration #  3     ecut=    40.00 Ry     beta= 0.70
     Davidson diagonalization with overlap
     ethr =  5.37E-04,  avg # of iterations =  7.2

     negative rho (up, down):  1.217E-04 0.000E+00

     total cpu time spent up to now is       83.1 secs

     total energy              =    -906.80107036 Ry
     estimated scf accuracy    <      41.49992471 Ry

     iteration #  4     ecut=    40.00 Ry     beta= 0.70
     Davidson diagonalization with overlap
     ethr =  5.37E-04,  avg # of iterations =  7.2

     negative rho (up, down):  1.218E-04 0.000E+00

     total cpu time spent up to now is      100.9 secs

     total energy              =    -907.89533875 Ry
     estimated scf accuracy    <       0.13345517 Ry

     iteration #  5     ecut=    40.00 Ry     beta= 0.70
     Davidson diagonalization with overlap
     ethr =  2.67E-04,  avg # of iterations =  2.0

     negative rho (up, down):  1.243E-04 0.000E+00

     total cpu time spent up to now is      114.8 secs

     total energy              =    -907.90781233 Ry
     estimated scf accuracy    <       0.09451270 Ry

     iteration #  6     ecut=    40.00 Ry     beta= 0.70
     Davidson diagonalization with overlap
     ethr =  1.89E-04,  avg # of iterations =  1.6

     negative rho (up, down):  1.258E-04 0.000E+00

     total cpu time spent up to now is      127.4 secs

     total energy              =    -907.90799377 Ry
     estimated scf accuracy    <       0.05392023 Ry

     iteration #  7     ecut=    40.00 Ry     beta= 0.70
     Davidson diagonalization with overlap
     ethr =  1.08E-04,  avg # of iterations =  1.9

     negative rho (up, down):  1.278E-04 0.000E+00

     total cpu time spent up to now is      140.4 secs

     total energy              =    -907.91048605 Ry
     estimated scf accuracy    <       0.01218003 Ry

     iteration #  8     ecut=    40.00 Ry     beta= 0.70
     Davidson diagonalization with overlap
     ethr =  2.44E-05,  avg # of iterations =  4.4

     negative rho (up, down):  1.293E-04 0.000E+00

     total cpu time spent up to now is      154.6 secs

     total energy              =    -907.91123410 Ry
     estimated scf accuracy    <       0.00150094 Ry

     iteration #  9     ecut=    40.00 Ry     beta= 0.70
     Davidson diagonalization with overlap
     ethr =  3.00E-06,  avg # of iterations =  7.4

     negative rho (up, down):  1.316E-04 0.000E+00

     total cpu time spent up to now is      170.2 secs

     total energy              =    -907.91125895 Ry
     estimated scf accuracy    <       0.00387176 Ry

     iteration # 10     ecut=    40.00 Ry     beta= 0.70
     Davidson diagonalization with overlap
     ethr =  3.00E-06,  avg # of iterations =  1.1

     negative rho (up, down):  1.317E-04 0.000E+00

     total cpu time spent up to now is      182.4 secs

     total energy              =    -907.91145285 Ry
     estimated scf accuracy    <       0.00134242 Ry

     iteration # 11     ecut=    40.00 Ry     beta= 0.70
     Davidson diagonalization with overlap
     ethr =  2.68E-06,  avg # of iterations =  1.0

     negative rho (up, down):  1.320E-04 0.000E+00

     total cpu time spent up to now is      194.4 secs

     total energy              =    -907.91147905 Ry
     estimated scf accuracy    <       0.00006566 Ry

     iteration # 12     ecut=    40.00 Ry     beta= 0.70
     Davidson diagonalization with overlap
     ethr =  1.31E-07,  avg # of iterations =  1.0

     negative rho (up, down):  1.321E-04 0.000E+00

     total cpu time spent up to now is      206.2 secs

     total energy              =    -907.91148005 Ry
     estimated scf accuracy    <       0.00000050 Ry

     iteration # 13     ecut=    40.00 Ry     beta= 0.70
     Davidson diagonalization with overlap
     ethr =  1.00E-09,  avg # of iterations =  1.2

     negative rho (up, down):  1.321E-04 0.000E+00

     total cpu time spent up to now is      218.7 secs

     total energy              =    -907.91148007 Ry
     estimated scf accuracy    <       0.00000001 Ry

     iteration # 14     ecut=    40.00 Ry     beta= 0.70
     Davidson diagonalization with overlap
     ethr =  2.25E-11,  avg # of iterations =  3.2

     negative rho (up, down):  1.321E-04 0.000E+00

     total cpu time spent up to now is      233.7 secs

     End of self-consistent calculation

          k = 0.0000 0.0000 0.0000 (  5429 PWs)   bands (ev):

   -51.4509 -51.4376 -27.6627 -27.6560 -27.4335 -27.4335 -27.4245 -27.4245
   -10.3516 -10.2867  -9.0612  -8.9612  -2.1135  -1.8094   0.9712   0.9712
     1.0221   1.0221   1.3930   2.0763   2.0763   2.1166   2.1166   2.1290
     3.8434   4.2770   6.3254   6.3254   6.3682   6.3682   6.5024   6.5024
     6.5363   6.5363   8.5504   8.7276   9.0064   9.6095  11.3532  11.5629
    11.6237  11.9811  13.8542  13.8542  13.8795  13.8795  14.0209  15.7614
    15.7995  15.7995  16.0489  16.0489  16.1263  17.1022  18.0534  18.5252
    18.6687  18.6687  18.8015  19.1716

     occupation numbers 
     1.0000   1.0000   1.0000   1.0000   1.0000   1.0000   1.0000   1.0000
     1.0000   1.0000   1.0000   1.0000   1.0000   1.0000   1.0000   1.0000
     1.0000   1.0000   1.0000   1.0000   1.0000   1.0000   1.0000   1.0000
    -0.0023  -0.0000  -0.0000  -0.0000  -0.0000  -0.0000  -0.0000  -0.0000
    -0.0000  -0.0000  -0.0000  -0.0000  -0.0000  -0.0000  -0.0000  -0.0000
    -0.0000  -0.0000  -0.0000  -0.0000  -0.0000  -0.0000  -0.0000  -0.0000
    -0.0000  -0.0000  -0.0000  -0.0000  -0.0000  -0.0000  -0.0000  -0.0000
    -0.0000  -0.0000  -0.0000  -0.0000

          k = 0.0000 0.1050 0.0000 (  5393 PWs)   bands (ev):

   -51.4473 -51.4340 -27.6550 -27.6482 -27.4702 -27.4616 -27.4416 -27.4327
   -10.2384 -10.1743  -9.0239  -8.9278  -1.9794  -1.6762   0.6793   0.7265
     1.0674   1.0857   1.1353   1.4660   1.8867   1.9285   2.2182   2.5168
     3.7874   4.1181   6.1969   6.2695   6.2840   6.3683   6.3826   6.4419
     6.5742   6.6018   8.9127   9.2326   9.3747   9.8391  11.5392  11.8276
    12.1636  12.3291  13.3629  13.5763  14.1925  14.2405  14.2449  14.9083
    15.1985  15.7669  15.8674  16.0693  16.0892  17.1368  17.7109  18.3730
    18.5969  18.7488  19.0144  19.0336

     occupation numbers 
     1.0000   1.0000   1.0000   1.0000   1.0000   1.0000   1.0000   1.0000
     1.0000   1.0000   1.0000   1.0000   1.0000   1.0000   1.0000   1.0000
     1.0000   1.0000   1.0000   1.0000   1.0000   1.0000   1.0000   1.0010
    -0.0051  -0.0000  -0.0000  -0.0000  -0.0000  -0.0000  -0.0000  -0.0000
    -0.0000  -0.0000  -0.0000  -0.0000  -0.0000  -0.0000  -0.0000  -0.0000
    -0.0000  -0.0000  -0.0000  -0.0000  -0.0000  -0.0000  -0.0000  -0.0000
    -0.0000  -0.0000  -0.0000  -0.0000  -0.0000  -0.0000  -0.0000  -0.0000
    -0.0000  -0.0000  -0.0000  -0.0000

          k = 0.0000 0.2099 0.0000 (  5383 PWs)   bands (ev):

   -51.4378 -51.4244 -27.6343 -27.6273 -27.5677 -27.5599 -27.4633 -27.4545
    -9.9231  -9.8615  -8.9197  -8.8350  -1.6497  -1.3581   0.0566   0.0941
     0.4776   0.7396   1.3931   1.4197   1.4598   1.5237   2.1601   2.5118
     3.4967   3.6371   5.8386   6.1652   6.1925   6.2501   6.3156   6.4926
     7.0771   7.1238   9.4235   9.9647  10.4412  10.8195  11.9615  12.0443
    12.7351  12.9392  12.9474  13.1257  14.0702  14.2887  14.7691  15.0818
    15.1776  15.4045  15.7554  15.8421  16.2379  16.7896  17.0266  17.6584
    17.7334  18.2526  18.2690  18.9381

     occupation numbers 
     1.0000   1.0000   1.0000   1.0000   1.0000   1.0000   1.0000   1.0000
     1.0000   1.0000   1.0000   1.0000   1.0000   1.0000   1.0000   1.0000
     1.0000   1.0000   1.0000   1.0000   1.0000   1.0000   1.0000   1.0009
    -0.0306  -0.0240  -0.0000  -0.0000  -0.0000  -0.0000  -0.0000  -0.0000
    -0.0000  -0.0000  -0.0000  -0.0000  -0.0000  -0.0000  -0.0000  -0.0000
    -0.0000  -0.0000  -0.0000  -0.0000  -0.0000  -0.0000  -0.0000  -0.0000
    -0.0000  -0.0000  -0.0000  -0.0000  -0.0000  -0.0000  -0.0000  -0.0000
    -0.0000  -0.0000  -0.0000  -0.0000

          k = 0.0000 0.3149 0.0000 (  5367 PWs)   bands (ev):

   -51.4252 -51.4117 -27.6929 -27.6861 -27.6070 -27.5996 -27.4916 -27.4830
    -9.4769  -9.4212  -8.7730  -8.7051  -1.4604  -1.2663  -0.3876  -0.3238
    -0.1437   0.0252   1.0084   1.0485   1.7888   1.8377   1.8930   2.2528
     3.0079   3.0919   5.8965   6.0888   6.1388   6.2817   6.6977   6.9471
     7.5747   7.6474  10.0445  10.4771  10.9016  11.5603  11.7102  12.1539
    12.2282  12.6237  13.0841  13.2737  14.2723  14.8961  14.9679  15.2949
    15.5851  15.6711  15.9064  16.3135  16.5729  16.6813  16.7462  17.2059
    17.3915  17.6250  17.9305  18.8758

     occupation numbers 
     1.0000   1.0000   1.0000   1.0000   1.0000   1.0000   1.0000   1.0000
     1.0000   1.0000   1.0000   1.0000   1.0000   1.0000   1.0000   1.0000
     1.0000   1.0000   1.0000   1.0000   1.0000   1.0000   1.0000   1.0000
     0.9705   0.8250  -0.0000  -0.0000  -0.0000  -0.0000  -0.0000  -0.0000
    -0.0000  -0.0000  -0.0000  -0.0000  -0.0000  -0.0000  -0.0000  -0.0000
    -0.0000  -0.0000  -0.0000  -0.0000  -0.0000  -0.0000  -0.0000  -0.0000
    -0.0000  -0.0000  -0.0000  -0.0000  -0.0000  -0.0000  -0.0000  -0.0000
    -0.0000  -0.0000  -0.0000  -0.0000

          k = 0.0000 0.4199 0.0000 (  5389 PWs)   bands (ev):

   -51.4136 -51.4001 -27.8056 -27.7997 -27.5818 -27.5742 -27.5174 -27.5089
    -9.0200  -8.9748  -8.6250  -8.5763  -1.7493  -1.6680  -0.7479  -0.6074
    -0.3581  -0.2932   0.6618   0.7039   1.6639   2.0172   2.1202   2.1681
     2.8256   2.9230   6.1830   6.2142   6.2661   6.5502   7.1108   7.3699
     7.9036   8.0055  10.4333  10.4909  10.8327  11.0275  11.1203  11.7416
    11.9384  12.8440  13.1822  13.8835  13.9828  14.6129  14.7832  15.0568
    15.1636  15.6028  16.5497  16.6913  17.0843  17.1711  17.2834  17.6969
    18.2119  18.3738  18.4525  18.5944

     occupation numbers 
     1.0000   1.0000   1.0000   1.0000   1.0000   1.0000   1.0000   1.0000
     1.0000   1.0000   1.0000   1.0000   1.0000   1.0000   1.0000   1.0000
     1.0000   1.0000   1.0000   1.0000   1.0000   1.0000   1.0000   1.0000
     1.0317   1.0291  -0.0000  -0.0000  -0.0000  -0.0000  -0.0000  -0.0000
    -0.0000  -0.0000  -0.0000  -0.0000  -0.0000  -0.0000  -0.0000  -0.0000
    -0.0000  -0.0000  -0.0000  -0.0000  -0.0000  -0.0000  -0.0000  -0.0000
    -0.0000  -0.0000  -0.0000  -0.0000  -0.0000  -0.0000  -0.0000  -0.0000
    -0.0000  -0.0000  -0.0000  -0.0000

          k = 0.0000 0.5249 0.0000 (  5374 PWs)   bands (ev):

   -51.4067 -51.3931 -27.8716 -27.8662 -27.5668 -27.5589 -27.5326 -27.5243
    -8.7172  -8.6848  -8.5286  -8.4950  -2.0317  -1.9873  -1.0716  -0.9458
    -0.4047  -0.3737   0.4771   0.5199   1.5586   1.9026   2.2900   2.3411
     2.9924   3.1055   6.3595   6.3730   6.6941   6.8017   7.2738   7.5687
     8.0508   8.1719   9.4526   9.9316  11.0059  11.0672  11.3372  11.6548
    12.2629  12.7648  13.2961  13.5263  13.5983  14.0485  14.2104  14.4288
    15.1006  15.2368  16.2791  16.9512  17.5009  17.7769  17.8260  18.4415
    18.6431  18.9453  19.5581  19.8022

     occupation numbers 
     1.0000   1.0000   1.0000   1.0000   1.0000   1.0000   1.0000   1.0000
     1.0000   1.0000   1.0000   1.0000   1.0000   1.0000   1.0000   1.0000
     1.0000   1.0000   1.0000   1.0000   1.0000   1.0000   1.0000   1.0000
     0.9872   0.7928  -0.0000  -0.0000  -0.0000  -0.0000  -0.0000  -0.0000
    -0.0000  -0.0000  -0.0000  -0.0000  -0.0000  -0.0000  -0.0000  -0.0000
    -0.0000  -0.0000  -0.0000  -0.0000  -0.0000  -0.0000  -0.0000  -0.0000
    -0.0000  -0.0000  -0.0000  -0.0000  -0.0000  -0.0000  -0.0000  -0.0000
    -0.0000  -0.0000  -0.0000  -0.0000

          k = 0.0909 0.1575 0.0000 (  5357 PWs)   bands (ev):

   -51.4408 -51.4274 -27.6408 -27.6338 -27.5351 -27.5270 -27.4587 -27.4499
   -10.0240  -9.9615  -8.9529  -8.8645  -1.7421  -1.4436   0.2352   0.2762
     0.6880   0.9983   1.2826   1.3219   1.4422   1.4867   2.3340   2.6434
     3.6148   3.7925   5.9017   6.1220   6.1922   6.2358   6.2690   6.3852
     6.9915   7.0414   9.2851   9.8257  10.1914  10.4841  11.8479  12.0015
    12.8218  12.9897  13.0118  13.2256  14.1406  14.2140  14.5035  14.7300
    14.8658  15.4634  15.7708  15.8924  16.0595  17.2082  17.5167  17.6628
    17.9249  18.3237  18.5231  19.2224

     occupation numbers 
     1.0000   1.0000   1.0000   1.0000   1.0000   1.0000   1.0000   1.0000
     1.0000   1.0000   1.0000   1.0000   1.0000   1.0000   1.0000   1.0000
     1.0000   1.0000   1.0000   1.0000   1.0000   1.0000   1.0000   1.0063
    -0.0277  -0.0048  -0.0000  -0.0000  -0.0000  -0.0000  -0.0000  -0.0000
    -0.0000  -0.0000  -0.0000  -0.0000  -0.0000  -0.0000  -0.0000  -0.0000
    -0.0000  -0.0000  -0.0000  -0.0000  -0.0000  -0.0000  -0.0000  -0.0000
    -0.0000  -0.0000  -0.0000  -0.0000  -0.0000  -0.0000  -0.0000  -0.0000
    -0.0000  -0.0000  -0.0000  -0.0000

          k = 0.0909 0.2624 0.0000 (  5370 PWs)   bands (ev):

   -51.4297 -51.4163 -27.6409 -27.6337 -27.6168 -27.6095 -27.4892 -27.4806
    -9.6419  -9.5835  -8.8261  -8.7518  -1.4382  -1.1828  -0.2661  -0.2362
     0.1706   0.3599   0.8620   0.9376   1.5565   1.6028   2.2585   2.5409
     3.2156   3.2741   5.7120   5.9637   6.1868   6.3202   6.3876   6.5802
     7.5528   7.6141   9.8472  10.3718  11.0963  11.6902  12.0277  12.4210
    12.4781  12.7517  12.8090  13.1724  14.2835  14.4793  14.7416  14.8354
    14.9867  15.5080  15.6381  16.0724  16.2304  16.4451  16.7297  17.4991
    17.6705  17.9582  18.3262  19.4006

     occupation numbers 
     1.0000   1.0000   1.0000   1.0000   1.0000   1.0000   1.0000   1.0000
     1.0000   1.0000   1.0000   1.0000   1.0000   1.0000   1.0000   1.0000
     1.0000   1.0000   1.0000   1.0000   1.0000   1.0000   1.0000   1.0015
     0.4733   0.2984  -0.0000  -0.0000  -0.0000  -0.0000  -0.0000  -0.0000
    -0.0000  -0.0000  -0.0000  -0.0000  -0.0000  -0.0000  -0.0000  -0.0000
    -0.0000  -0.0000  -0.0000  -0.0000  -0.0000  -0.0000  -0.0000  -0.0000
    -0.0000  -0.0000  -0.0000  -0.0000  -0.0000  -0.0000  -0.0000  -0.0000
    -0.0000  -0.0000  -0.0000  -0.0000

          k = 0.0909 0.3674 0.0000 (  5386 PWs)   bands (ev):

   -51.4176 -51.4041 -27.7535 -27.7472 -27.5906 -27.5830 -27.5225 -27.5142
    -9.1855  -9.1355  -8.6751  -8.6189  -1.5154  -1.3965  -0.5220  -0.4057
    -0.3175  -0.2490   0.5546   0.6546   1.7160   1.7597   1.9758   2.2486
     2.9346   2.9909   5.8372   6.0587   6.3739   6.5035   6.8110   7.0211
     7.9416   7.9863  10.5059  10.8559  11.1498  11.2160  11.6266  12.0641
    12.1927  12.9172  13.1622  13.7661  14.1987  14.4331  14.7712  15.0659
    15.1328  15.4505  15.5680  16.1391  16.2521  17.1284  17.3015  17.6588
    18.0215  18.2793  18.3392  18.5300

     occupation numbers 
     1.0000   1.0000   1.0000   1.0000   1.0000   1.0000   1.0000   1.0000
     1.0000   1.0000   1.0000   1.0000   1.0000   1.0000   1.0000   1.0000
     1.0000   1.0000   1.0000   1.0000   1.0000   1.0000   1.0000   1.0000
     1.0253   0.9886  -0.0000  -0.0000  -0.0000  -0.0000  -0.0000  -0.0000
    -0.0000  -0.0000  -0.0000  -0.0000  -0.0000  -0.0000  -0.0000  -0.0000
    -0.0000  -0.0000  -0.0000  -0.0000  -0.0000  -0.0000  -0.0000  -0.0000
    -0.0000  -0.0000  -0.0000  -0.0000  -0.0000  -0.0000  -0.0000  -0.0000
    -0.0000  -0.0000  -0.0000  -0.0000

          k = 0.0909 0.4724 0.0000 (  5380 PWs)   bands (ev):

   -51.4083 -51.3948 -27.8380 -27.8323 -27.5704 -27.5626 -27.5479 -27.5397
    -8.7965  -8.7591  -8.5475  -8.5090  -1.8201  -1.7646  -1.0121  -0.9106
    -0.3353  -0.2954   0.4584   0.5293   1.6888   1.7979   1.8411   1.9880
     3.0527   3.1359   6.1773   6.3061   6.6450   6.7225   7.2549   7.4467
     7.9615   8.0582   9.9955  10.4494  11.2059  11.3341  11.4807  11.8773
    12.2350  13.0252  13.2874  13.4557  13.7755  13.9348  14.1772  14.7344
    15.5190  15.5571  16.2017  16.6459  16.9179  17.2675  17.6639  17.8728
    18.0929  18.3819  18.7954  19.2426

     occupation numbers 
     1.0000   1.0000   1.0000   1.0000   1.0000   1.0000   1.0000   1.0000
     1.0000   1.0000   1.0000   1.0000   1.0000   1.0000   1.0000   1.0000
     1.0000   1.0000   1.0000   1.0000   1.0000   1.0000   1.0000   1.0000
     0.9047   0.7133  -0.0000  -0.0000  -0.0000  -0.0000  -0.0000  -0.0000
    -0.0000  -0.0000  -0.0000  -0.0000  -0.0000  -0.0000  -0.0000  -0.0000
    -0.0000  -0.0000  -0.0000  -0.0000  -0.0000  -0.0000  -0.0000  -0.0000
    -0.0000  -0.0000  -0.0000  -0.0000  -0.0000  -0.0000  -0.0000  -0.0000
    -0.0000  -0.0000  -0.0000  -0.0000

          k = 0.0909 0.5774 0.0000 (  5376 PWs)   bands (ev):

   -51.4049 -51.3913 -27.8692 -27.8638 -27.5629 -27.5573 -27.5550 -27.5491
    -8.6390  -8.6102  -8.4957  -8.4659  -1.9506  -1.9165  -1.2019  -1.1045
    -0.3833  -0.3624   0.4469   0.4949   1.5821   1.8344   1.8825   1.8943
     3.2007   3.2977   6.3300   6.3620   6.8524   6.9230   7.4932   7.7062
     7.7797   7.9672   9.4013  10.0089  11.4519  11.5462  11.8063  11.9311
    12.5446  12.6483  12.8186  13.4548  13.6529  13.7769  14.2243  14.2905
    15.0963  15.3613  16.3388  16.7617  17.3123  17.5672  17.7202  18.1367
    18.6045  18.7002  19.2906  19.3866

     occupation numbers 
     1.0000   1.0000   1.0000   1.0000   1.0000   1.0000   1.0000   1.0000
     1.0000   1.0000   1.0000   1.0000   1.0000   1.0000   1.0000   1.0000
     1.0000   1.0000   1.0000   1.0000   1.0000   1.0000   1.0000   1.0000
     0.5197   0.2346  -0.0000  -0.0000  -0.0000  -0.0000  -0.0000  -0.0000
    -0.0000  -0.0000  -0.0000  -0.0000  -0.0000  -0.0000  -0.0000  -0.0000
    -0.0000  -0.0000  -0.0000  -0.0000  -0.0000  -0.0000  -0.0000  -0.0000
    -0.0000  -0.0000  -0.0000  -0.0000  -0.0000  -0.0000  -0.0000  -0.0000
    -0.0000  -0.0000  -0.0000  -0.0000

          k = 0.1818 0.3149 0.0000 (  5390 PWs)   bands (ev):

   -51.4191 -51.4056 -27.7239 -27.7174 -27.5938 -27.5863 -27.5349 -27.5266
    -9.2459  -9.1942  -8.6920  -8.6330  -1.3743  -1.2257  -0.3912  -0.3116
    -0.2420  -0.2065   0.3442   0.5107   1.4415   1.4801   2.2359   2.4387
     3.0096   3.0297   5.6625   5.9634   6.4178   6.5153   6.5846   6.7631
     8.0307   8.0860  10.4829  10.9154  11.4438  11.7199  12.0847  12.2927
    12.7261  13.0770  13.0988  13.4323  14.1674  14.3459  14.4333  14.6018
    14.7201  15.1264  15.1671  15.8074  15.9769  17.1287  17.1517  17.5332
    18.1120  18.2634  18.7202  19.4200

     occupation numbers 
     1.0000   1.0000   1.0000   1.0000   1.0000   1.0000   1.0000   1.0000
     1.0000   1.0000   1.0000   1.0000   1.0000   1.0000   1.0000   1.0000
     1.0000   1.0000   1.0000   1.0000   1.0000   1.0000   1.0000   1.0002
     0.9686   0.9420  -0.0000  -0.0000  -0.0000  -0.0000  -0.0000  -0.0000
    -0.0000  -0.0000  -0.0000  -0.0000  -0.0000  -0.0000  -0.0000  -0.0000
    -0.0000  -0.0000  -0.0000  -0.0000  -0.0000  -0.0000  -0.0000  -0.0000
    -0.0000  -0.0000  -0.0000  -0.0000  -0.0000  -0.0000  -0.0000  -0.0000
    -0.0000  -0.0000  -0.0000  -0.0000

          k = 0.1818 0.4199 0.0000 (  5372 PWs)   bands (ev):

   -51.4093 -51.3958 -27.7934 -27.7875 -27.5825 -27.5745 -27.5726 -27.5648
    -8.8461  -8.8053  -8.5537  -8.5119  -1.5230  -1.4418  -0.9693  -0.9242
    -0.2177  -0.1354   0.3275   0.4811   1.1020   1.1411   1.9477   2.1225
     3.0992   3.1385   5.9321   6.2363   6.6985   6.7100   6.9315   7.0905
     8.1976   8.2784  10.6877  11.0508  11.3654  11.5118  11.7584  12.4013
    12.5561  12.9548  13.3832  13.5716  13.8176  14.2823  14.4631  15.1351
    15.2391  15.2955  15.4428  15.9217  16.2033  16.9524  17.1145  17.5161
    17.7427  18.0957  18.5043  18.7507

     occupation numbers 
     1.0000   1.0000   1.0000   1.0000   1.0000   1.0000   1.0000   1.0000
     1.0000   1.0000   1.0000   1.0000   1.0000   1.0000   1.0000   1.0000
     1.0000   1.0000   1.0000   1.0000   1.0000   1.0000   1.0000   1.0000
     0.8081   0.7059  -0.0000  -0.0000  -0.0000  -0.0000  -0.0000  -0.0000
    -0.0000  -0.0000  -0.0000  -0.0000  -0.0000  -0.0000  -0.0000  -0.0000
    -0.0000  -0.0000  -0.0000  -0.0000  -0.0000  -0.0000  -0.0000  -0.0000
    -0.0000  -0.0000  -0.0000  -0.0000  -0.0000  -0.0000  -0.0000  -0.0000
    -0.0000  -0.0000  -0.0000  -0.0000

          k = 0.1818 0.5249 0.0000 (  5383 PWs)   bands (ev):

   -51.4035 -51.3899 -27.8326 -27.8270 -27.6125 -27.6047 -27.5600 -27.5520
    -8.5867  -8.5584  -8.4615  -8.4331  -1.6062  -1.5706  -1.3695  -1.3169
    -0.2883  -0.2464   0.4608   0.5611   0.9418   1.0237   1.6411   1.8354
     3.3721   3.4316   6.0777   6.1403   6.9556   7.1068   7.2845   7.3659
     8.0680   8.2727   9.8587  10.5115  11.6584  12.0209  12.2026  12.3809
    12.6458  12.8534  13.0143  13.5228  13.8812  14.1795  14.3214  14.8403
    15.2799  15.7631  15.9248  16.2354  16.5890  16.8885  17.1010  17.1905
    17.8215  18.1651  18.4439  18.6691

     occupation numbers 
     1.0000   1.0000   1.0000   1.0000   1.0000   1.0000   1.0000   1.0000
     1.0000   1.0000   1.0000   1.0000   1.0000   1.0000   1.0000   1.0000
     1.0000   1.0000   1.0000   1.0000   1.0000   1.0000   1.0000   1.0000
     0.0770   0.0038  -0.0000  -0.0000  -0.0000  -0.0000  -0.0000  -0.0000
    -0.0000  -0.0000  -0.0000  -0.0000  -0.0000  -0.0000  -0.0000  -0.0000
    -0.0000  -0.0000  -0.0000  -0.0000  -0.0000  -0.0000  -0.0000  -0.0000
    -0.0000  -0.0000  -0.0000  -0.0000  -0.0000  -0.0000  -0.0000  -0.0000
    -0.0000  -0.0000  -0.0000  -0.0000

          k = 0.2727 0.4724 0.0000 (  5362 PWs)   bands (ev):

   -51.4030 -51.3894 -27.8012 -27.7954 -27.6511 -27.6436 -27.5589 -27.5510
    -8.5691  -8.5404  -8.4466  -8.4184  -1.4485  -1.4166  -1.3575  -1.2849
    -0.1496  -0.0467   0.3591   0.3991   0.4733   0.6131   1.6886   1.7962
     3.4502   3.4608   5.9130   5.9985   6.9270   7.0450   7.1570   7.2928
     8.4396   8.4837  10.5062  10.6376  11.3827  11.5306  11.9766  12.8513
    12.9649  13.1893  13.2720  14.2511  14.4790  14.5883  14.8222  15.0439
    15.2138  15.4752  15.7199  15.7679  16.1444  16.2701  16.6411  17.0123
    17.0792  17.7757  17.8129  18.6706

     occupation numbers 
     1.0000   1.0000   1.0000   1.0000   1.0000   1.0000   1.0000   1.0000
     1.0000   1.0000   1.0000   1.0000   1.0000   1.0000   1.0000   1.0000
     1.0000   1.0000   1.0000   1.0000   1.0000   1.0000   1.0000   1.0000
    -0.0102  -0.0166  -0.0000  -0.0000  -0.0000  -0.0000  -0.0000  -0.0000
    -0.0000  -0.0000  -0.0000  -0.0000  -0.0000  -0.0000  -0.0000  -0.0000
    -0.0000  -0.0000  -0.0000  -0.0000  -0.0000  -0.0000  -0.0000  -0.0000
    -0.0000  -0.0000  -0.0000  -0.0000  -0.0000  -0.0000  -0.0000  -0.0000
    -0.0000  -0.0000  -0.0000  -0.0000

          k = 0.2727 0.5774 0.0000 (  5366 PWs)   bands (ev):

   -51.4006 -51.3870 -27.7931 -27.7874 -27.6878 -27.6803 -27.5538 -27.5458
    -8.4619  -8.4420  -8.4014  -8.3781  -1.6350  -1.6012  -1.1395  -1.0996
    -0.3265  -0.2356   0.0970   0.2090   0.6293   0.7457   1.4955   1.5789
     3.7071   3.7296   5.6776   5.7000   7.0122   7.0490   7.4397   7.5465
     8.5333   8.6119  10.1655  10.6983  10.8713  11.5505  12.2284  13.1831
    13.4573  13.5497  13.9054  13.9455  14.4721  14.6431  14.7879  15.0843
    15.2968  15.5110  15.5911  15.8240  16.0947  16.3761  16.4548  16.7516
    16.9862  17.2315  18.2794  18.6482

     occupation numbers 
     1.0000   1.0000   1.0000   1.0000   1.0000   1.0000   1.0000   1.0000
     1.0000   1.0000   1.0000   1.0000   1.0000   1.0000   1.0000   1.0000
     1.0000   1.0000   1.0000   1.0000   1.0000   1.0000   1.0000   1.0000
    -0.0130  -0.0102  -0.0000  -0.0000  -0.0000  -0.0000  -0.0000  -0.0000
    -0.0000  -0.0000  -0.0000  -0.0000  -0.0000  -0.0000  -0.0000  -0.0000
    -0.0000  -0.0000  -0.0000  -0.0000  -0.0000  -0.0000  -0.0000  -0.0000
    -0.0000  -0.0000  -0.0000  -0.0000  -0.0000  -0.0000  -0.0000  -0.0000
    -0.0000  -0.0000  -0.0000  -0.0000

     the Fermi energy is     3.2071 ev

!    total energy              =    -907.91148007 Ry

     total all-electron energy =    -18448.320502 Ry
     estimated scf accuracy    <          3.1E-10 Ry
     smearing contrib. (-TS)   =      -0.00198556 Ry
     internal energy E=F+TS    =    -907.90949451 Ry

     The total energy is F=E-TS. E is the sum of the following terms:
     one-electron contribution =   -1048.07999008 Ry
     hartree contribution      =     537.56785558 Ry
     xc contribution           =     -65.32323330 Ry
     ewald contribution        =     256.18108273 Ry
     one-center paw contrib.   =    -588.25520944 Ry
      -> PAW hartree energy AE =     100.87574156 Ry
      -> PAW hartree energy PS =    -100.36161414 Ry
      -> PAW xc energy AE      =    -324.79847576 Ry
      -> PAW xc energy PS      =      30.15756069 Ry
      -> total E_H with PAW    =     538.08198299 Ry
      -> total E_XC with PAW   =    -359.96414837 Ry

     convergence has been achieved in  14 iterations

     Writing output data file ./tmp/NbS2_bi.save/

     init_run     :      5.34s CPU      5.45s WALL (       1 calls)
     electrons    :    222.31s CPU    227.28s WALL (       1 calls)

     Called by init_run:
     wfcinit      :      3.92s CPU      3.94s WALL (       1 calls)
     wfcinit:atom :      0.02s CPU      0.02s WALL (      16 calls)
     wfcinit:wfcr :      3.81s CPU      3.83s WALL (      16 calls)
     potinit      :      0.33s CPU      0.33s WALL (       1 calls)
     hinit0       :      0.60s CPU      0.61s WALL (       1 calls)

     Called by electrons:
     c_bands      :    184.63s CPU    185.99s WALL (      15 calls)
     sum_band     :     30.04s CPU     32.13s WALL (      15 calls)
     v_of_rho     :      0.47s CPU      0.51s WALL (      15 calls)
     v_h          :      0.26s CPU      0.28s WALL (      15 calls)
     v_xc         :      0.21s CPU      0.23s WALL (      15 calls)
     newd         :      5.96s CPU      7.45s WALL (      15 calls)
     PAW_pot      :      0.88s CPU      0.88s WALL (      15 calls)
     mix_rho      :      0.53s CPU      0.53s WALL (      15 calls)

     Called by c_bands:
     init_us_2    :      0.75s CPU      0.76s WALL (     496 calls)
     cegterg      :    182.61s CPU    183.91s WALL (     240 calls)

     Called by sum_band:
     sum_band:wei :      0.02s CPU      0.02s WALL (      15 calls)
     sum_band:loo :     20.89s CPU     21.18s WALL (      15 calls)
     sum_band:buf :      0.32s CPU      0.32s WALL (     240 calls)
     sum_band:ini :      0.35s CPU      0.35s WALL (     240 calls)
     sum_band:cal :      5.31s CPU      5.33s WALL (     240 calls)
     sum_band:bec :      0.03s CPU      0.03s WALL (     240 calls)
     addusdens    :      8.75s CPU     10.53s WALL (      15 calls)
     addusd:skk   :      0.04s CPU      0.06s WALL (      30 calls)
     addusd:dgemm :      3.30s CPU      4.80s WALL (      30 calls)
     addusd:qvan2 :      4.95s CPU      4.95s WALL (      30 calls)

     Called by *egterg:
     cdiaghg      :      6.39s CPU      6.41s WALL (    1106 calls)
     cegterg:over :     21.46s CPU     21.54s WALL (     882 calls)
     cegterg:upda :     11.77s CPU     11.80s WALL (     882 calls)
     cegterg:last :     34.29s CPU     34.33s WALL (     428 calls)
     h_psi        :     89.62s CPU     90.69s WALL (    1138 calls)
     s_psi        :     11.78s CPU     11.83s WALL (    1138 calls)
     g_psi        :      0.23s CPU      0.24s WALL (     882 calls)

     Called by h_psi:
     h_psi:calbec :     13.13s CPU     13.17s WALL (    1138 calls)
     vloc_psi     :     64.12s CPU     65.12s WALL (    1138 calls)
     add_vuspsi   :     11.72s CPU     11.74s WALL (    1138 calls)

     General routines
     calbec       :     18.43s CPU     18.49s WALL (    1378 calls)
     fft          :      1.20s CPU      1.25s WALL (      89 calls)
     ffts         :      0.05s CPU      0.05s WALL (      30 calls)
     fftw         :     69.98s CPU     71.10s WALL (   83170 calls)
     interpolate  :      0.25s CPU      0.26s WALL (      15 calls)

     Parallel routines
     fft_scatt_xy :      7.90s CPU      8.02s WALL (   83289 calls)
     fft_scatt_yz :      5.59s CPU      5.74s WALL (   83289 calls)

     PAW routines
     PAW_pot      :      0.88s CPU      0.88s WALL (      15 calls)
     PAW_symme    :      0.00s CPU      0.00s WALL (      30 calls)

     PWSCF        :   3m48.78s CPU   3m54.44s WALL


   This run was terminated on:  16:54:58  14Jun2021            

=------------------------------------------------------------------------------=
   JOB DONE.
=------------------------------------------------------------------------------=
