
     Program PWSCF v.6.6 starts on 14Jun2021 at 17:32:19 

     This program is part of the open-source Quantum ESPRESSO suite
     for quantum simulation of materials; please cite
         "P. Giannozzi et al., J. Phys.:Condens. Matter 21 395502 (2009);
         "P. Giannozzi et al., J. Phys.:Condens. Matter 29 465901 (2017);
          URL http://www.quantum-espresso.org", 
     in publications or presentations arising from this work. More details at
     http://www.quantum-espresso.org/quote

     Parallel version (MPI), running on     2 processors

     MPI processes distributed on     1 nodes
     R & G space division:  proc/nbgrp/npool/nimage =       2
     Fft bands division:     nmany     =       1
     Waiting for input...
     Reading input from standard input

     Current dimensions of program PWSCF are:
     Max number of different atomic species (ntypx) = 10
     Max number of k-points (npk) =  40000
     Max angular momentum in pseudopotentials (lmaxx) =  3
     file Nb.pz-spn-kjpaw_psl.1.0.0.UPF: wavefunction(s)  4S 4P 4D renormalized
     file S.pz-n-kjpaw_psl.0.1.UPF: wavefunction(s)  3P renormalized

     Subspace diagonalization in iterative solution of the eigenvalue problem:
     a serial algorithm will be used


     Parallelization info
     --------------------
     sticks:   dense  smooth     PW     G-vecs:    dense   smooth      PW
     Min         534     210     60                85019    21488    3582
     Max         535     211     61                85022    21517    3607
     Sum        1069     421    121               170041    43005    7189



     bravais-lattice index     =            4
     lattice parameter (alat)  =       6.2006  a.u.
     unit-cell volume          =    1258.4114 (a.u.)^3
     number of atoms/cell      =            6
     number of atomic types    =            2
     number of electrons       =        50.00
     number of Kohn-Sham states=           60
     kinetic-energy cutoff     =      40.0000  Ry
     charge density cutoff     =     400.0000  Ry
     convergence threshold     =      1.0E-08
     mixing beta               =       0.7000
     number of iterations used =            8  plain     mixing
     Exchange-correlation= SLA PZ NOGX NOGC
                           (   1   1   0   0   0   0   0)

     celldm(1)=   6.200569  celldm(2)=   0.000000  celldm(3)=   6.095331
     celldm(4)=   0.000000  celldm(5)=   0.000000  celldm(6)=   0.000000

     crystal axes: (cart. coord. in units of alat)
               a(1) = (   1.000000   0.000000   0.000000 )  
               a(2) = (  -0.500000   0.866025   0.000000 )  
               a(3) = (   0.000000   0.000000   6.095331 )  

     reciprocal axes: (cart. coord. in units 2 pi/alat)
               b(1) = (  1.000000  0.577350 -0.000000 )  
               b(2) = (  0.000000  1.154701  0.000000 )  
               b(3) = (  0.000000 -0.000000  0.164060 )  


     PseudoPot. # 1 for Nb read from file:
     ../Nb.pz-spn-kjpaw_psl.1.0.0.UPF
     MD5 check sum: 38c2e04b3cc915696ca8dc9f46a23270
     Pseudo is Projector augmented-wave + core cor, Zval = 13.0
     Generated using "atomic" code by A. Dal Corso v.6.2.2
     Shape of augmentation charge: PSQ
     Using radial grid of 1227 points,  6 beta functions with: 
                l(1) =   0
                l(2) =   0
                l(3) =   1
                l(4) =   1
                l(5) =   2
                l(6) =   2
     Q(r) pseudized with 0 coefficients 


     PseudoPot. # 2 for S  read from file:
     ../S.pz-n-kjpaw_psl.0.1.UPF
     MD5 check sum: c0b1682311cf098e03f7841691d9a679
     Pseudo is Projector augmented-wave + core cor, Zval =  6.0
     Generated using "atomic" code by A. Dal Corso v.5.0.2 svn rev. 9415
     Shape of augmentation charge: PSQ
     Using radial grid of 1151 points,  4 beta functions with: 
                l(1) =   0
                l(2) =   0
                l(3) =   1
                l(4) =   1
     Q(r) pseudized with 0 coefficients 


     atomic species   valence    mass     pseudopotential
        Nb            13.00    92.90600     Nb( 1.00)
        S              6.00    32.06500     S ( 1.00)

      6 Sym. Ops. (no inversion) found


                                    s                        frac. trans.

      isym =  1     identity                                     

 cryst.   s( 1) = (     1          0          0      )
                  (     0          1          0      )
                  (     0          0          1      )

 cart.    s( 1) = (  1.0000000  0.0000000  0.0000000 )
                  (  0.0000000  1.0000000  0.0000000 )
                  (  0.0000000  0.0000000  1.0000000 )


      isym =  2     120 deg rotation - cryst. axis [0,0,1]       

 cryst.   s( 2) = (     0          1          0      )
                  (    -1         -1          0      )
                  (     0          0          1      )

 cart.    s( 2) = ( -0.5000000 -0.8660254  0.0000000 )
                  (  0.8660254 -0.5000000  0.0000000 )
                  (  0.0000000  0.0000000  1.0000000 )


      isym =  3     120 deg rotation - cryst. axis [0,0,-1]      

 cryst.   s( 3) = (    -1         -1          0      )
                  (     1          0          0      )
                  (     0          0          1      )

 cart.    s( 3) = ( -0.5000000  0.8660254  0.0000000 )
                  ( -0.8660254 -0.5000000  0.0000000 )
                  (  0.0000000  0.0000000  1.0000000 )


      isym =  4     inv. 180 deg rotation - cart. axis [1,0,0]   

 cryst.   s( 4) = (    -1          0          0      )
                  (     1          1          0      )
                  (     0          0          1      )

 cart.    s( 4) = ( -1.0000000  0.0000000  0.0000000 )
                  (  0.0000000  1.0000000  0.0000000 )
                  (  0.0000000  0.0000000  1.0000000 )


      isym =  5     inv. 180 deg rotation - cryst. axis [0,1,0]  

 cryst.   s( 5) = (     1          1          0      )
                  (     0         -1          0      )
                  (     0          0          1      )

 cart.    s( 5) = (  0.5000000  0.8660254  0.0000000 )
                  (  0.8660254 -0.5000000  0.0000000 )
                  (  0.0000000  0.0000000  1.0000000 )


      isym =  6     inv. 180 deg rotation - cryst. axis [1,1,0]  

 cryst.   s( 6) = (     0         -1          0      )
                  (    -1          0          0      )
                  (     0          0          1      )

 cart.    s( 6) = (  0.5000000 -0.8660254  0.0000000 )
                  ( -0.8660254 -0.5000000  0.0000000 )
                  (  0.0000000  0.0000000  1.0000000 )


     point group C_3v (3m)  
     there are  3 classes
     the character table:

       E     2C3   3s_v 
A_1    1.00  1.00  1.00
A_2    1.00  1.00 -1.00
E      2.00 -1.00  0.00

     the symmetry operations in each class and the name of the first element:

     E        1
          identity                                               
     2C3      2    3
          120 deg rotation - cryst. axis [0,0,1]                 
     3s_v     4    5    6
          inv. 180 deg rotation - cart. axis [1,0,0]             

   Cartesian axes

     site n.     atom                  positions (alat units)
         1           S   tau(   1) = (   0.0000000   0.5773503   1.4932768  )
         2           Nb  tau(   2) = (   0.0000000   0.0000000   1.0094618  )
         3           S   tau(   3) = (   0.0000000   0.5773503   0.5321904  )
         4           S   tau(   4) = (   0.5000000   0.2886751   2.5511139  )
         5           Nb  tau(   5) = (   0.0000000   0.0000000   3.0283905  )
         6           S   tau(   6) = (   0.5000000   0.2886751   3.5056620  )

   Crystallographic axes

     site n.     atom                  positions (cryst. coord.)
         1           S   tau(   1) = (  0.3333333  0.6666667  0.2449870  )
         2           Nb  tau(   2) = (  0.0000000  0.0000000  0.1656123  )
         3           S   tau(   3) = (  0.3333333  0.6666667  0.0873112  )
         4           S   tau(   4) = (  0.6666667  0.3333333  0.4185358  )
         5           Nb  tau(   5) = (  0.0000000  0.0000000  0.4968378  )
         6           S   tau(   6) = (  0.6666667  0.3333333  0.5751389  )

     number of k points=    37  Methfessel-Paxton smearing, width (Ry)=  0.0200
                       cart. coord. in units 2pi/alat
        k(    1) = (   0.0000000   0.0000000   0.0000000), wk =   0.0061728
        k(    2) = (   0.0000000   0.0641500   0.0000000), wk =   0.0370370
        k(    3) = (   0.0000000   0.1283001   0.0000000), wk =   0.0370370
        k(    4) = (   0.0000000   0.1924501   0.0000000), wk =   0.0370370
        k(    5) = (   0.0000000   0.2566001   0.0000000), wk =   0.0370370
        k(    6) = (   0.0000000   0.3207501   0.0000000), wk =   0.0370370
        k(    7) = (   0.0000000   0.3849002   0.0000000), wk =   0.0370370
        k(    8) = (   0.0000000   0.4490502   0.0000000), wk =   0.0370370
        k(    9) = (   0.0000000   0.5132002   0.0000000), wk =   0.0370370
        k(   10) = (   0.0000000  -0.5773503   0.0000000), wk =   0.0185185
        k(   11) = (   0.0555556   0.0962250   0.0000000), wk =   0.0370370
        k(   12) = (   0.0555556   0.1603751   0.0000000), wk =   0.0740741
        k(   13) = (   0.0555556   0.2245251   0.0000000), wk =   0.0740741
        k(   14) = (   0.0555556   0.2886751   0.0000000), wk =   0.0740741
        k(   15) = (   0.0555556   0.3528252   0.0000000), wk =   0.0740741
        k(   16) = (   0.0555556   0.4169752   0.0000000), wk =   0.0740741
        k(   17) = (   0.0555556   0.4811252   0.0000000), wk =   0.0740741
        k(   18) = (   0.0555556   0.5452753   0.0000000), wk =   0.0740741
        k(   19) = (   0.1111111   0.1924501   0.0000000), wk =   0.0370370
        k(   20) = (   0.1111111   0.2566001   0.0000000), wk =   0.0740741
        k(   21) = (   0.1111111   0.3207501   0.0000000), wk =   0.0740741
        k(   22) = (   0.1111111   0.3849002   0.0000000), wk =   0.0740741
        k(   23) = (   0.1111111   0.4490502   0.0000000), wk =   0.0740741
        k(   24) = (   0.1111111   0.5132002   0.0000000), wk =   0.0740741
        k(   25) = (   0.1111111   0.5773503   0.0000000), wk =   0.0370370
        k(   26) = (   0.1666667   0.2886751   0.0000000), wk =   0.0370370
        k(   27) = (   0.1666667   0.3528252   0.0000000), wk =   0.0740741
        k(   28) = (   0.1666667   0.4169752   0.0000000), wk =   0.0740741
        k(   29) = (   0.1666667   0.4811252   0.0000000), wk =   0.0740741
        k(   30) = (   0.1666667   0.5452753   0.0000000), wk =   0.0740741
        k(   31) = (   0.2222222   0.3849002   0.0000000), wk =   0.0370370
        k(   32) = (   0.2222222   0.4490502   0.0000000), wk =   0.0740741
        k(   33) = (   0.2222222   0.5132002   0.0000000), wk =   0.0740741
        k(   34) = (   0.2222222   0.5773503   0.0000000), wk =   0.0370370
        k(   35) = (   0.2777778   0.4811252   0.0000000), wk =   0.0370370
        k(   36) = (   0.2777778   0.5452753   0.0000000), wk =   0.0740741
        k(   37) = (   0.3333333   0.5773503   0.0000000), wk =   0.0123457

                       cryst. coord.
        k(    1) = (   0.0000000   0.0000000   0.0000000), wk =   0.0061728
        k(    2) = (   0.0000000   0.0555556   0.0000000), wk =   0.0370370
        k(    3) = (   0.0000000   0.1111111   0.0000000), wk =   0.0370370
        k(    4) = (   0.0000000   0.1666667   0.0000000), wk =   0.0370370
        k(    5) = (   0.0000000   0.2222222   0.0000000), wk =   0.0370370
        k(    6) = (   0.0000000   0.2777778   0.0000000), wk =   0.0370370
        k(    7) = (   0.0000000   0.3333333   0.0000000), wk =   0.0370370
        k(    8) = (   0.0000000   0.3888889   0.0000000), wk =   0.0370370
        k(    9) = (   0.0000000   0.4444444   0.0000000), wk =   0.0370370
        k(   10) = (   0.0000000  -0.5000000   0.0000000), wk =   0.0185185
        k(   11) = (   0.0555556   0.0555556   0.0000000), wk =   0.0370370
        k(   12) = (   0.0555556   0.1111111   0.0000000), wk =   0.0740741
        k(   13) = (   0.0555556   0.1666667   0.0000000), wk =   0.0740741
        k(   14) = (   0.0555556   0.2222222   0.0000000), wk =   0.0740741
        k(   15) = (   0.0555556   0.2777778   0.0000000), wk =   0.0740741
        k(   16) = (   0.0555556   0.3333333   0.0000000), wk =   0.0740741
        k(   17) = (   0.0555556   0.3888889   0.0000000), wk =   0.0740741
        k(   18) = (   0.0555556   0.4444444   0.0000000), wk =   0.0740741
        k(   19) = (   0.1111111   0.1111111   0.0000000), wk =   0.0370370
        k(   20) = (   0.1111111   0.1666667   0.0000000), wk =   0.0740741
        k(   21) = (   0.1111111   0.2222222   0.0000000), wk =   0.0740741
        k(   22) = (   0.1111111   0.2777778   0.0000000), wk =   0.0740741
        k(   23) = (   0.1111111   0.3333333   0.0000000), wk =   0.0740741
        k(   24) = (   0.1111111   0.3888889   0.0000000), wk =   0.0740741
        k(   25) = (   0.1111111   0.4444444   0.0000000), wk =   0.0370370
        k(   26) = (   0.1666667   0.1666667   0.0000000), wk =   0.0370370
        k(   27) = (   0.1666667   0.2222222   0.0000000), wk =   0.0740741
        k(   28) = (   0.1666667   0.2777778   0.0000000), wk =   0.0740741
        k(   29) = (   0.1666667   0.3333333   0.0000000), wk =   0.0740741
        k(   30) = (   0.1666667   0.3888889   0.0000000), wk =   0.0740741
        k(   31) = (   0.2222222   0.2222222   0.0000000), wk =   0.0370370
        k(   32) = (   0.2222222   0.2777778   0.0000000), wk =   0.0740741
        k(   33) = (   0.2222222   0.3333333   0.0000000), wk =   0.0740741
        k(   34) = (   0.2222222   0.3888889   0.0000000), wk =   0.0370370
        k(   35) = (   0.2777778   0.2777778   0.0000000), wk =   0.0370370
        k(   36) = (   0.2777778   0.3333333   0.0000000), wk =   0.0740741
        k(   37) = (   0.3333333   0.3333333   0.0000000), wk =   0.0123457

     Dense  grid:   170041 G-vectors     FFT dimensions: (  40,  40, 243)

     Smooth grid:    43005 G-vectors     FFT dimensions: (  25,  25, 160)

     Dynamical RAM for                 wfc:       2.46 MB

     Dynamical RAM for     wfc (w. buffer):      93.52 MB

     Dynamical RAM for           str. fact:       2.59 MB

     Dynamical RAM for           local pot:       0.00 MB

     Dynamical RAM for          nlocal pot:       2.79 MB

     Dynamical RAM for                qrad:       3.21 MB

     Dynamical RAM for          rho,v,vnew:       8.36 MB

     Dynamical RAM for               rhoin:       2.79 MB

     Dynamical RAM for            rho*nmix:      20.76 MB

     Dynamical RAM for           G-vectors:       5.03 MB

     Dynamical RAM for          h,s,v(r/c):       0.66 MB

     Dynamical RAM for          <psi|beta>:       0.06 MB

     Dynamical RAM for                 psi:       4.92 MB

     Dynamical RAM for                hpsi:       4.92 MB

     Dynamical RAM for                spsi:       4.92 MB

     Dynamical RAM for      wfcinit/wfcrot:       5.00 MB

     Dynamical RAM for           addusdens:     246.48 MB

     Estimated static dynamical RAM per process >     150.38 MB

     Estimated max dynamical RAM per process >     396.86 MB

     Estimated total dynamical RAM >     793.73 MB

     Initial potential from superposition of free atoms

     starting charge   49.99775, renormalised to   50.00000

     negative rho (up, down):  7.872E-05 0.000E+00
     Starting wfcs are   42 randomized atomic wfcs +   18 random wfcs
     Checking if some PAW data can be deallocated... 

     total cpu time spent up to now is       11.5 secs

     Self-consistent Calculation

     iteration #  1     ecut=    40.00 Ry     beta= 0.70
     Davidson diagonalization with overlap
     ethr =  1.00E-02,  avg # of iterations =  7.7

     Threshold (ethr) on eigenvalues was too large:
     Diagonalizing with lowered threshold

     Davidson diagonalization with overlap
     ethr =  5.35E-04,  avg # of iterations =  2.2

     negative rho (up, down):  1.253E-04 0.000E+00

     total cpu time spent up to now is      101.2 secs

     total energy              =    -907.81148329 Ry
     estimated scf accuracy    <       0.26865590 Ry

     iteration #  2     ecut=    40.00 Ry     beta= 0.70
     Davidson diagonalization with overlap
     ethr =  5.37E-04,  avg # of iterations =  6.1

     negative rho (up, down):  1.425E-04 0.000E+00

     total cpu time spent up to now is      140.9 secs

     total energy              =    -907.49716196 Ry
     estimated scf accuracy    <       2.98597289 Ry

     iteration #  3     ecut=    40.00 Ry     beta= 0.70
     Davidson diagonalization with overlap
     ethr =  5.37E-04,  avg # of iterations =  7.7

     negative rho (up, down):  1.216E-04 0.000E+00

     total cpu time spent up to now is      180.7 secs

     total energy              =    -906.81576532 Ry
     estimated scf accuracy    <      40.54073668 Ry

     iteration #  4     ecut=    40.00 Ry     beta= 0.70
     Davidson diagonalization with overlap
     ethr =  5.37E-04,  avg # of iterations =  7.1

     negative rho (up, down):  1.217E-04 0.000E+00

     total cpu time spent up to now is      219.2 secs

     total energy              =    -907.89523598 Ry
     estimated scf accuracy    <       0.13756225 Ry

     iteration #  5     ecut=    40.00 Ry     beta= 0.70
     Davidson diagonalization with overlap
     ethr =  2.75E-04,  avg # of iterations =  2.1

     negative rho (up, down):  1.241E-04 0.000E+00

     total cpu time spent up to now is      249.2 secs

     total energy              =    -907.90743965 Ry
     estimated scf accuracy    <       0.10778415 Ry

     iteration #  6     ecut=    40.00 Ry     beta= 0.70
     Davidson diagonalization with overlap
     ethr =  2.16E-04,  avg # of iterations =  1.4

     negative rho (up, down):  1.257E-04 0.000E+00

     total cpu time spent up to now is      275.9 secs

     total energy              =    -907.90761950 Ry
     estimated scf accuracy    <       0.05986384 Ry

     iteration #  7     ecut=    40.00 Ry     beta= 0.70
     Davidson diagonalization with overlap
     ethr =  1.20E-04,  avg # of iterations =  1.6

     negative rho (up, down):  1.276E-04 0.000E+00

     total cpu time spent up to now is      303.5 secs

     total energy              =    -907.91060118 Ry
     estimated scf accuracy    <       0.01332891 Ry

     iteration #  8     ecut=    40.00 Ry     beta= 0.70
     Davidson diagonalization with overlap
     ethr =  2.67E-05,  avg # of iterations =  4.8

     negative rho (up, down):  1.293E-04 0.000E+00

     total cpu time spent up to now is      334.2 secs

     total energy              =    -907.91124944 Ry
     estimated scf accuracy    <       0.00151054 Ry

     iteration #  9     ecut=    40.00 Ry     beta= 0.70
     Davidson diagonalization with overlap
     ethr =  3.02E-06,  avg # of iterations =  8.0

     negative rho (up, down):  1.317E-04 0.000E+00

     total cpu time spent up to now is      368.1 secs

     total energy              =    -907.91126661 Ry
     estimated scf accuracy    <       0.00389007 Ry

     iteration # 10     ecut=    40.00 Ry     beta= 0.70
     Davidson diagonalization with overlap
     ethr =  3.02E-06,  avg # of iterations =  1.0

     negative rho (up, down):  1.317E-04 0.000E+00

     total cpu time spent up to now is      393.5 secs

     total energy              =    -907.91146097 Ry
     estimated scf accuracy    <       0.00180519 Ry

     iteration # 11     ecut=    40.00 Ry     beta= 0.70
     Davidson diagonalization with overlap
     ethr =  3.02E-06,  avg # of iterations =  1.0

     negative rho (up, down):  1.320E-04 0.000E+00

     total cpu time spent up to now is      419.0 secs

     total energy              =    -907.91149539 Ry
     estimated scf accuracy    <       0.00008564 Ry

     iteration # 12     ecut=    40.00 Ry     beta= 0.70
     Davidson diagonalization with overlap
     ethr =  1.71E-07,  avg # of iterations =  1.0

     negative rho (up, down):  1.321E-04 0.000E+00

     total cpu time spent up to now is      444.4 secs

     total energy              =    -907.91149669 Ry
     estimated scf accuracy    <       0.00000077 Ry

     iteration # 13     ecut=    40.00 Ry     beta= 0.70
     Davidson diagonalization with overlap
     ethr =  1.54E-09,  avg # of iterations =  1.0

     negative rho (up, down):  1.321E-04 0.000E+00

     total cpu time spent up to now is      470.0 secs

     total energy              =    -907.91149672 Ry
     estimated scf accuracy    <       0.00000002 Ry

     iteration # 14     ecut=    40.00 Ry     beta= 0.70
     Davidson diagonalization with overlap
     ethr =  3.43E-11,  avg # of iterations =  2.6

     negative rho (up, down):  1.321E-04 0.000E+00

     total cpu time spent up to now is      501.6 secs

     End of self-consistent calculation

          k = 0.0000 0.0000 0.0000 (  5429 PWs)   bands (ev):

   -51.4504 -51.4367 -27.6631 -27.6559 -27.4326 -27.4326 -27.4232 -27.4232
   -10.3511 -10.2864  -9.0610  -8.9610  -2.1130  -1.8088   0.9723   0.9723
     1.0228   1.0228   1.3931   2.0768   2.0768   2.1167   2.1167   2.1291
     3.8434   4.2770   6.3256   6.3256   6.3686   6.3686   6.5028   6.5028
     6.5370   6.5370   8.5508   8.7284   9.0065   9.6094  11.3532  11.5626
    11.6238  11.9812  13.8544  13.8544  13.8797  13.8797  14.0207  15.7614
    15.7996  15.7996  16.0490  16.0490  16.1263  17.1020  18.0536  18.5255
    18.6688  18.6688  18.8018  19.1718

     occupation numbers 
     1.0000   1.0000   1.0000   1.0000   1.0000   1.0000   1.0000   1.0000
     1.0000   1.0000   1.0000   1.0000   1.0000   1.0000   1.0000   1.0000
     1.0000   1.0000   1.0000   1.0000   1.0000   1.0000   1.0000   1.0000
    -0.0024  -0.0000  -0.0000  -0.0000  -0.0000  -0.0000  -0.0000  -0.0000
    -0.0000  -0.0000  -0.0000  -0.0000  -0.0000  -0.0000  -0.0000  -0.0000
    -0.0000  -0.0000  -0.0000  -0.0000  -0.0000  -0.0000  -0.0000  -0.0000
    -0.0000  -0.0000  -0.0000  -0.0000  -0.0000  -0.0000  -0.0000  -0.0000
    -0.0000  -0.0000  -0.0000  -0.0000

          k = 0.0000 0.0642 0.0000 (  5403 PWs)   bands (ev):

   -51.4491 -51.4353 -27.6601 -27.6529 -27.4466 -27.4373 -27.4357 -27.4263
   -10.3084 -10.2439  -9.0469  -8.9484  -2.0618  -1.7578   0.8569   0.9060
     1.0157   1.0658   1.2520   1.7324   2.0022   2.0427   2.1655   2.4028
     3.8257   4.2192   6.2901   6.3180   6.3961   6.3973   6.4487   6.4583
     6.4834   6.5011   8.7181   8.9342   9.1283   9.6911  11.4282  11.6963
    11.8386  12.0930  13.6124  13.7553  13.9827  14.0179  14.1469  15.3788
    15.6326  15.7823  15.8570  16.0542  16.1376  17.1143  17.9761  18.4816
    18.7029  18.9196  19.1021  19.1157

     occupation numbers 
     1.0000   1.0000   1.0000   1.0000   1.0000   1.0000   1.0000   1.0000
     1.0000   1.0000   1.0000   1.0000   1.0000   1.0000   1.0000   1.0000
     1.0000   1.0000   1.0000   1.0000   1.0000   1.0000   1.0000   1.0001
    -0.0031  -0.0000  -0.0000  -0.0000  -0.0000  -0.0000  -0.0000  -0.0000
    -0.0000  -0.0000  -0.0000  -0.0000  -0.0000  -0.0000  -0.0000  -0.0000
    -0.0000  -0.0000  -0.0000  -0.0000  -0.0000  -0.0000  -0.0000  -0.0000
    -0.0000  -0.0000  -0.0000  -0.0000  -0.0000  -0.0000  -0.0000  -0.0000
    -0.0000  -0.0000  -0.0000  -0.0000

          k = 0.0000 0.1283 0.0000 (  5387 PWs)   bands (ev):

   -51.4452 -51.4314 -27.6517 -27.6444 -27.4866 -27.4777 -27.4445 -27.4352
   -10.1836 -10.1200  -9.0057  -8.9116  -1.9167  -1.6142   0.5543   0.5996
     0.9464   1.1412   1.1895   1.3086   1.8041   1.8464   2.2330   2.5524
     3.7501   4.0365   6.1023   6.2433   6.2552   6.3450   6.3484   6.4025
     6.6709   6.7039   9.0216   9.4259   9.5835   9.9734  11.6185  11.8863
    12.3902  12.5189  13.2156  13.4546  14.2805  14.3528  14.4091  14.6527
    14.9517  15.7646  15.8343  16.0327  16.0871  17.1468  17.5026  18.2835
    18.4338  18.6042  18.9212  19.0180

     occupation numbers 
     1.0000   1.0000   1.0000   1.0000   1.0000   1.0000   1.0000   1.0000
     1.0000   1.0000   1.0000   1.0000   1.0000   1.0000   1.0000   1.0000
     1.0000   1.0000   1.0000   1.0000   1.0000   1.0000   1.0000   1.0017
    -0.0082  -0.0001  -0.0000  -0.0000  -0.0000  -0.0000  -0.0000  -0.0000
    -0.0000  -0.0000  -0.0000  -0.0000  -0.0000  -0.0000  -0.0000  -0.0000
    -0.0000  -0.0000  -0.0000  -0.0000  -0.0000  -0.0000  -0.0000  -0.0000
    -0.0000  -0.0000  -0.0000  -0.0000  -0.0000  -0.0000  -0.0000  -0.0000
    -0.0000  -0.0000  -0.0000  -0.0000

          k = 0.0000 0.1925 0.0000 (  5369 PWs)   bands (ev):

   -51.4392 -51.4254 -27.6388 -27.6313 -27.5475 -27.5391 -27.4581 -27.4488
    -9.9868  -9.9247  -8.9407  -8.8536  -1.7087  -1.4129   0.1638   0.2033
     0.5820   0.8629   1.3336   1.3742   1.5373   1.5869   2.1912   2.5392
     3.5680   3.7337   5.8753   6.1713   6.2241   6.2812   6.2821   6.4396
     6.9867   7.0302   9.3309   9.8679  10.2678  10.6043  11.8877  12.0038
    12.8099  12.9436  13.0158  13.0892  14.0683  14.2915  14.7203  14.9108
    14.9962  15.5201  15.8114  15.8225  16.1913  16.9132  17.0938  17.8324
    17.8523  18.3290  18.4158  18.9584

     occupation numbers 
     1.0000   1.0000   1.0000   1.0000   1.0000   1.0000   1.0000   1.0000
     1.0000   1.0000   1.0000   1.0000   1.0000   1.0000   1.0000   1.0000
     1.0000   1.0000   1.0000   1.0000   1.0000   1.0000   1.0000   1.0014
    -0.0342  -0.0099  -0.0000  -0.0000  -0.0000  -0.0000  -0.0000  -0.0000
    -0.0000  -0.0000  -0.0000  -0.0000  -0.0000  -0.0000  -0.0000  -0.0000
    -0.0000  -0.0000  -0.0000  -0.0000  -0.0000  -0.0000  -0.0000  -0.0000
    -0.0000  -0.0000  -0.0000  -0.0000  -0.0000  -0.0000  -0.0000  -0.0000
    -0.0000  -0.0000  -0.0000  -0.0000

          k = 0.0000 0.2566 0.0000 (  5369 PWs)   bands (ev):

   -51.4318 -51.4180 -27.6233 -27.6209 -27.6152 -27.6136 -27.4746 -27.4655
    -9.7345  -9.6752  -8.8575  -8.7797  -1.5116  -1.2442  -0.1922  -0.1613
     0.1964   0.4140   1.2521   1.2880   1.5685   1.6220   2.0506   2.4083
     3.2769   3.3761   5.8097   6.1258   6.1818   6.1885   6.4572   6.6763
     7.3132   7.3704   9.6883  10.2042  10.7731  11.3549  11.9663  12.3281
    12.5156  12.6689  12.7686  13.1534  14.2167  14.5700  14.9706  15.1390
    15.5203  15.5943  15.6526  15.9743  16.4089  16.5659  16.8065  17.2506
    17.4724  17.8397  18.0947  18.9930

     occupation numbers 
     1.0000   1.0000   1.0000   1.0000   1.0000   1.0000   1.0000   1.0000
     1.0000   1.0000   1.0000   1.0000   1.0000   1.0000   1.0000   1.0000
     1.0000   1.0000   1.0000   1.0000   1.0000   1.0000   1.0000   1.0001
     0.2943   0.0728  -0.0000  -0.0000  -0.0000  -0.0000  -0.0000  -0.0000
    -0.0000  -0.0000  -0.0000  -0.0000  -0.0000  -0.0000  -0.0000  -0.0000
    -0.0000  -0.0000  -0.0000  -0.0000  -0.0000  -0.0000  -0.0000  -0.0000
    -0.0000  -0.0000  -0.0000  -0.0000  -0.0000  -0.0000  -0.0000  -0.0000
    -0.0000  -0.0000  -0.0000  -0.0000

          k = 0.0000 0.3208 0.0000 (  5371 PWs)   bands (ev):

   -51.4240 -51.4101 -27.6989 -27.6917 -27.6058 -27.5980 -27.4922 -27.4832
    -9.4500  -9.3948  -8.7641  -8.6973  -1.4653  -1.2801  -0.3991  -0.3289
    -0.1743  -0.0109   0.9861   1.0261   1.8110   1.8594   1.8777   2.2374
     2.9860   3.0696   5.9116   6.0895   6.1389   6.2944   6.7237   6.9748
     7.5983   7.6727  10.0795  10.5020  10.9042  11.5326  11.6815  12.1248
    12.1905  12.6466  13.0874  13.3383  14.2684  14.8892  14.9944  15.2926
    15.6131  15.6445  15.8973  16.3532  16.5822  16.6997  16.7903  17.2475
    17.4059  17.6399  17.9267  18.7731

     occupation numbers 
     1.0000   1.0000   1.0000   1.0000   1.0000   1.0000   1.0000   1.0000
     1.0000   1.0000   1.0000   1.0000   1.0000   1.0000   1.0000   1.0000
     1.0000   1.0000   1.0000   1.0000   1.0000   1.0000   1.0000   1.0000
     0.9943   0.8755  -0.0000  -0.0000  -0.0000  -0.0000  -0.0000  -0.0000
    -0.0000  -0.0000  -0.0000  -0.0000  -0.0000  -0.0000  -0.0000  -0.0000
    -0.0000  -0.0000  -0.0000  -0.0000  -0.0000  -0.0000  -0.0000  -0.0000
    -0.0000  -0.0000  -0.0000  -0.0000  -0.0000  -0.0000  -0.0000  -0.0000
    -0.0000  -0.0000  -0.0000  -0.0000

          k = 0.0000 0.3849 0.0000 (  5379 PWs)   bands (ev):

   -51.4166 -51.4027 -27.7709 -27.7642 -27.5898 -27.5818 -27.5087 -27.4997
    -9.1635  -9.1144  -8.6710  -8.6161  -1.6263  -1.5200  -0.5924  -0.4481
    -0.3490  -0.2739   0.7617   0.8031   1.7272   2.0258   2.0730   2.0836
     2.8324   2.9206   6.1243   6.1321   6.1705   6.4534   6.9930   7.2508
     7.8158   7.9086  10.4021  10.7258  10.8520  11.0218  11.2985  11.8563
    11.9452  12.7992  13.1350  13.8861  14.1111  14.8249  15.0224  15.1161
    15.3773  15.4826  16.1499  16.7577  16.8127  17.0672  17.3551  17.4372
    17.9844  18.0729  18.1490  18.1797

     occupation numbers 
     1.0000   1.0000   1.0000   1.0000   1.0000   1.0000   1.0000   1.0000
     1.0000   1.0000   1.0000   1.0000   1.0000   1.0000   1.0000   1.0000
     1.0000   1.0000   1.0000   1.0000   1.0000   1.0000   1.0000   1.0000
     1.0324   1.0301  -0.0000  -0.0000  -0.0000  -0.0000  -0.0000  -0.0000
    -0.0000  -0.0000  -0.0000  -0.0000  -0.0000  -0.0000  -0.0000  -0.0000
    -0.0000  -0.0000  -0.0000  -0.0000  -0.0000  -0.0000  -0.0000  -0.0000
    -0.0000  -0.0000  -0.0000  -0.0000  -0.0000  -0.0000  -0.0000  -0.0000
    -0.0000  -0.0000  -0.0000  -0.0000

          k = 0.0000 0.4491 0.0000 (  5377 PWs)   bands (ev):

   -51.4106 -51.3966 -27.8288 -27.8227 -27.5767 -27.5685 -27.5220 -27.5132
    -8.9123  -8.8710  -8.5904  -8.5469  -1.8469  -1.7804  -0.8645  -0.7298
    -0.3653  -0.3115   0.5933   0.6353   1.6225   1.9730   2.1856   2.2341
     2.8564   2.9620   6.2361   6.2615   6.3911   6.6318   7.1851   7.4492
     7.9613   8.0703  10.1483  10.3555  10.9021  11.0024  11.1422  11.6842
    11.9869  12.8679  13.2427  13.7313  13.8940  14.4109  14.5273  14.9105
    15.1657  15.6622  16.4024  16.9218  17.1295  17.3094  17.4975  17.9872
    18.1556  18.5757  18.8253  18.9221

     occupation numbers 
     1.0000   1.0000   1.0000   1.0000   1.0000   1.0000   1.0000   1.0000
     1.0000   1.0000   1.0000   1.0000   1.0000   1.0000   1.0000   1.0000
     1.0000   1.0000   1.0000   1.0000   1.0000   1.0000   1.0000   1.0000
     1.0348   1.0123  -0.0000  -0.0000  -0.0000  -0.0000  -0.0000  -0.0000
    -0.0000  -0.0000  -0.0000  -0.0000  -0.0000  -0.0000  -0.0000  -0.0000
    -0.0000  -0.0000  -0.0000  -0.0000  -0.0000  -0.0000  -0.0000  -0.0000
    -0.0000  -0.0000  -0.0000  -0.0000  -0.0000  -0.0000  -0.0000  -0.0000
    -0.0000  -0.0000  -0.0000  -0.0000

          k = 0.0000 0.5132 0.0000 (  5382 PWs)   bands (ev):

   -51.4066 -51.3927 -27.8664 -27.8605 -27.5681 -27.5599 -27.5307 -27.5219
    -8.7373  -8.7039  -8.5348  -8.5002  -2.0117  -1.9653  -1.0501  -0.9235
    -0.3982  -0.3652   0.4892   0.5317   1.5647   1.9095   2.2802   2.3308
     2.9734   3.0868   6.3458   6.3606   6.6541   6.7838   7.2685   7.5581
     8.0423   8.1623   9.5329   9.9881  10.9950  11.0559  11.3013  11.6632
    12.2090  12.7982  13.3500  13.5163  13.5923  14.0999  14.2206  14.4808
    15.1890  15.2680  16.2530  16.9804  17.4435  17.7238  17.8433  18.3563
    18.5625  18.8898  19.4774  19.7099

     occupation numbers 
     1.0000   1.0000   1.0000   1.0000   1.0000   1.0000   1.0000   1.0000
     1.0000   1.0000   1.0000   1.0000   1.0000   1.0000   1.0000   1.0000
     1.0000   1.0000   1.0000   1.0000   1.0000   1.0000   1.0000   1.0000
     1.0045   0.8395  -0.0000  -0.0000  -0.0000  -0.0000  -0.0000  -0.0000
    -0.0000  -0.0000  -0.0000  -0.0000  -0.0000  -0.0000  -0.0000  -0.0000
    -0.0000  -0.0000  -0.0000  -0.0000  -0.0000  -0.0000  -0.0000  -0.0000
    -0.0000  -0.0000  -0.0000  -0.0000  -0.0000  -0.0000  -0.0000  -0.0000
    -0.0000  -0.0000  -0.0000  -0.0000

          k = 0.0000-0.5774 0.0000 (  5356 PWs)   bands (ev):

   -51.4053 -51.3913 -27.8793 -27.8736 -27.5651 -27.5568 -27.5337 -27.5249
    -8.6740  -8.6445  -8.5147  -8.4837  -2.0714  -2.0318  -1.1150  -0.9908
    -0.4180  -0.3913   0.4540   0.4966   1.5467   1.8891   2.3110   2.3626
     3.0374   3.1488   6.3929   6.4039   6.8034   6.8256   7.2818   7.5903
     8.0680   8.1919   9.2808   9.8089  11.0361  11.0819  11.4860  11.5720
    12.5084  12.5656  13.1759  13.4008  13.9205  13.9441  14.0406  14.3230
    14.9984  15.0472  16.4065  16.8388  17.6639  17.7161  17.8908  18.6577
    18.8244  19.0706  19.7288  20.0000

     occupation numbers 
     1.0000   1.0000   1.0000   1.0000   1.0000   1.0000   1.0000   1.0000
     1.0000   1.0000   1.0000   1.0000   1.0000   1.0000   1.0000   1.0000
     1.0000   1.0000   1.0000   1.0000   1.0000   1.0000   1.0000   1.0001
     0.9324   0.6804  -0.0000  -0.0000  -0.0000  -0.0000  -0.0000  -0.0000
    -0.0000  -0.0000  -0.0000  -0.0000  -0.0000  -0.0000  -0.0000  -0.0000
    -0.0000  -0.0000  -0.0000  -0.0000  -0.0000  -0.0000  -0.0000  -0.0000
    -0.0000  -0.0000  -0.0000  -0.0000  -0.0000  -0.0000  -0.0000  -0.0000
    -0.0000  -0.0000  -0.0000  -0.0000

          k = 0.0556 0.0962 0.0000 (  5387 PWs)   bands (ev):

   -51.4464 -51.4327 -27.6544 -27.6472 -27.4733 -27.4642 -27.4420 -27.4326
   -10.2246 -10.1607  -9.0193  -8.9237  -1.9633  -1.6602   0.6498   0.6962
     1.0418   1.0990   1.1475   1.4369   1.8398   1.8793   2.2489   2.5449
     3.7793   4.0986   6.1797   6.2494   6.2648   6.3329   6.3835   6.4358
     6.6095   6.6420   8.9428   9.2857   9.4273   9.8699  11.5606  11.8458
    12.2210  12.3789  13.3256  13.5682  14.1470  14.2337  14.3581  14.8567
    15.1316  15.6943  15.9048  16.0079  16.1051  17.1547  17.7677  18.4004
    18.4493  18.8142  18.8435  19.0403

     occupation numbers 
     1.0000   1.0000   1.0000   1.0000   1.0000   1.0000   1.0000   1.0000
     1.0000   1.0000   1.0000   1.0000   1.0000   1.0000   1.0000   1.0000
     1.0000   1.0000   1.0000   1.0000   1.0000   1.0000   1.0000   1.0015
    -0.0057  -0.0000  -0.0000  -0.0000  -0.0000  -0.0000  -0.0000  -0.0000
    -0.0000  -0.0000  -0.0000  -0.0000  -0.0000  -0.0000  -0.0000  -0.0000
    -0.0000  -0.0000  -0.0000  -0.0000  -0.0000  -0.0000  -0.0000  -0.0000
    -0.0000  -0.0000  -0.0000  -0.0000  -0.0000  -0.0000  -0.0000  -0.0000
    -0.0000  -0.0000  -0.0000  -0.0000

          k = 0.0556 0.1604 0.0000 (  5360 PWs)   bands (ev):

   -51.4415 -51.4277 -27.6438 -27.6364 -27.5229 -27.5142 -27.4540 -27.4448
   -10.0638 -10.0010  -8.9661  -8.8762  -1.7846  -1.4849   0.3087   0.3505
     0.7380   1.0553   1.2519   1.2962   1.5532   1.5971   2.2966   2.6147
     3.6509   3.8534   5.9434   6.1606   6.2133   6.2580   6.2945   6.3807
     6.9055   6.9504   9.2214   9.7416  10.0396  10.3432  11.7898  11.9747
    12.7910  12.8798  12.9933  13.2642  14.1785  14.3080  14.5657  14.6694
    14.8162  15.5555  15.7627  15.9320  16.0783  17.1957  17.4005  17.8320
    18.1494  18.3705  18.5322  19.2366

     occupation numbers 
     1.0000   1.0000   1.0000   1.0000   1.0000   1.0000   1.0000   1.0000
     1.0000   1.0000   1.0000   1.0000   1.0000   1.0000   1.0000   1.0000
     1.0000   1.0000   1.0000   1.0000   1.0000   1.0000   1.0000   1.0043
    -0.0219  -0.0020  -0.0000  -0.0000  -0.0000  -0.0000  -0.0000  -0.0000
    -0.0000  -0.0000  -0.0000  -0.0000  -0.0000  -0.0000  -0.0000  -0.0000
    -0.0000  -0.0000  -0.0000  -0.0000  -0.0000  -0.0000  -0.0000  -0.0000
    -0.0000  -0.0000  -0.0000  -0.0000  -0.0000  -0.0000  -0.0000  -0.0000
    -0.0000  -0.0000  -0.0000  -0.0000

          k = 0.0556 0.2245 0.0000 (  5365 PWs)   bands (ev):

   -51.4348 -51.4210 -27.6294 -27.6218 -27.5890 -27.5809 -27.4703 -27.4611
    -9.8390  -9.7784  -8.8917  -8.8100  -1.5734  -1.2881  -0.0592  -0.0255
     0.3885   0.6329   1.2329   1.2772   1.4514   1.5062   2.2346   2.5531
     3.4120   3.5197   5.7894   6.0696   6.1784   6.2636   6.3146   6.4926
     7.2460   7.2999   9.5503  10.0975  10.6887  11.1104  12.0129  12.1609
    12.6255  12.8740  12.9560  13.2067  14.1502  14.2420  14.7182  15.0093
    15.1545  15.5358  15.6104  15.9263  16.1266  16.8555  17.1118  17.2979
    17.7004  17.9615  18.3519  19.1815

     occupation numbers 
     1.0000   1.0000   1.0000   1.0000   1.0000   1.0000   1.0000   1.0000
     1.0000   1.0000   1.0000   1.0000   1.0000   1.0000   1.0000   1.0000
     1.0000   1.0000   1.0000   1.0000   1.0000   1.0000   1.0000   1.0017
     0.0244  -0.0343  -0.0000  -0.0000  -0.0000  -0.0000  -0.0000  -0.0000
    -0.0000  -0.0000  -0.0000  -0.0000  -0.0000  -0.0000  -0.0000  -0.0000
    -0.0000  -0.0000  -0.0000  -0.0000  -0.0000  -0.0000  -0.0000  -0.0000
    -0.0000  -0.0000  -0.0000  -0.0000  -0.0000  -0.0000  -0.0000  -0.0000
    -0.0000  -0.0000  -0.0000  -0.0000

          k = 0.0556 0.2887 0.0000 (  5371 PWs)   bands (ev):

   -51.4272 -51.4134 -27.6633 -27.6558 -27.6129 -27.6051 -27.4888 -27.4797
    -9.5700  -9.5128  -8.8029  -8.7313  -1.4374  -1.2077  -0.3263  -0.2863
     0.0116   0.1927   0.9520   1.0139   1.6592   1.7064   2.0845   2.4002
     3.1196   3.1926   5.7794   6.0289   6.1674   6.3150   6.5282   6.7447
     7.5615   7.6207   9.9340  10.4178  10.9937  11.6646  11.8981  12.3268
    12.4594  12.5569  12.9514  13.1331  14.2960  14.7378  14.8941  15.0787
    15.2313  15.6727  15.7842  16.0721  16.2157  16.5611  16.8436  17.2830
    17.5753  17.6957  18.2165  19.2240

     occupation numbers 
     1.0000   1.0000   1.0000   1.0000   1.0000   1.0000   1.0000   1.0000
     1.0000   1.0000   1.0000   1.0000   1.0000   1.0000   1.0000   1.0000
     1.0000   1.0000   1.0000   1.0000   1.0000   1.0000   1.0000   1.0001
     0.7605   0.5489  -0.0000  -0.0000  -0.0000  -0.0000  -0.0000  -0.0000
    -0.0000  -0.0000  -0.0000  -0.0000  -0.0000  -0.0000  -0.0000  -0.0000
    -0.0000  -0.0000  -0.0000  -0.0000  -0.0000  -0.0000  -0.0000  -0.0000
    -0.0000  -0.0000  -0.0000  -0.0000  -0.0000  -0.0000  -0.0000  -0.0000
    -0.0000  -0.0000  -0.0000  -0.0000

          k = 0.0556 0.3528 0.0000 (  5378 PWs)   bands (ev):

   -51.4196 -51.4057 -27.7367 -27.7298 -27.5964 -27.5884 -27.5072 -27.4982
    -9.2833  -9.2313  -8.7087  -8.6486  -1.5062  -1.3683  -0.4632  -0.3519
    -0.3022  -0.2013   0.7388   0.8037   1.8304   1.8782   1.9090   2.2218
     2.9157   2.9859   5.8873   6.0661   6.2491   6.4247   6.8082   7.0395
     7.8061   7.8636  10.3288  10.6990  11.0120  11.3087  11.5956  12.0305
    12.1084  12.7889  13.1228  13.6660  14.2312  14.7503  15.0123  15.0975
    15.2902  15.6073  15.7275  16.2576  16.3712  16.9472  17.1810  17.6489
    17.7770  18.0129  18.2290  18.2921

     occupation numbers 
     1.0000   1.0000   1.0000   1.0000   1.0000   1.0000   1.0000   1.0000
     1.0000   1.0000   1.0000   1.0000   1.0000   1.0000   1.0000   1.0000
     1.0000   1.0000   1.0000   1.0000   1.0000   1.0000   1.0000   1.0000
     1.0313   0.9944  -0.0000  -0.0000  -0.0000  -0.0000  -0.0000  -0.0000
    -0.0000  -0.0000  -0.0000  -0.0000  -0.0000  -0.0000  -0.0000  -0.0000
    -0.0000  -0.0000  -0.0000  -0.0000  -0.0000  -0.0000  -0.0000  -0.0000
    -0.0000  -0.0000  -0.0000  -0.0000  -0.0000  -0.0000  -0.0000  -0.0000
    -0.0000  -0.0000  -0.0000  -0.0000

          k = 0.0556 0.4170 0.0000 (  5383 PWs)   bands (ev):

   -51.4129 -51.3990 -27.8004 -27.7940 -27.5818 -27.5737 -27.5233 -27.5145
    -9.0126  -8.9676  -8.6207  -8.5723  -1.7098  -1.6277  -0.7485  -0.6196
    -0.3433  -0.2791   0.5913   0.6495   1.7408   1.9632   1.9990   2.0725
     2.8888   2.9711   6.0697   6.1792   6.4020   6.5665   7.0759   7.3057
     7.9486   8.0068  10.5399  10.5587  10.9081  11.1151  11.2156  11.8240
    12.0160  12.9002  13.1986  13.9415  13.9951  14.2406  14.7889  14.9633
    15.3157  15.5338  16.3278  16.5911  16.8623  17.0701  17.4455  17.6169
    18.1236  18.3241  18.5894  18.7219

     occupation numbers 
     1.0000   1.0000   1.0000   1.0000   1.0000   1.0000   1.0000   1.0000
     1.0000   1.0000   1.0000   1.0000   1.0000   1.0000   1.0000   1.0000
     1.0000   1.0000   1.0000   1.0000   1.0000   1.0000   1.0000   1.0000
     1.0350   1.0062  -0.0000  -0.0000  -0.0000  -0.0000  -0.0000  -0.0000
    -0.0000  -0.0000  -0.0000  -0.0000  -0.0000  -0.0000  -0.0000  -0.0000
    -0.0000  -0.0000  -0.0000  -0.0000  -0.0000  -0.0000  -0.0000  -0.0000
    -0.0000  -0.0000  -0.0000  -0.0000  -0.0000  -0.0000  -0.0000  -0.0000
    -0.0000  -0.0000  -0.0000  -0.0000

          k = 0.0556 0.4811 0.0000 (  5382 PWs)   bands (ev):

   -51.4079 -51.3940 -27.8472 -27.8412 -27.5709 -27.5627 -27.5352 -27.5265
    -8.7971  -8.7604  -8.5513  -8.5133  -1.9019  -1.8483  -0.9968  -0.8787
    -0.3648  -0.3256   0.4993   0.5486   1.6278   1.9499   2.0529   2.1046
     2.9925   3.0901   6.2558   6.3110   6.5969   6.7239   7.2687   7.5079
     7.9804   8.0672   9.8511  10.2639  11.0737  11.1567  11.3327  11.7554
    12.1414  12.9162  13.3487  13.5383  13.7423  13.9077  14.4173  14.5757
    15.4157  15.4933  16.2312  16.8703  17.1422  17.5495  17.7344  17.9732
    18.1577  18.8886  18.9491  19.3134

     occupation numbers 
     1.0000   1.0000   1.0000   1.0000   1.0000   1.0000   1.0000   1.0000
     1.0000   1.0000   1.0000   1.0000   1.0000   1.0000   1.0000   1.0000
     1.0000   1.0000   1.0000   1.0000   1.0000   1.0000   1.0000   1.0000
     0.9883   0.8321  -0.0000  -0.0000  -0.0000  -0.0000  -0.0000  -0.0000
    -0.0000  -0.0000  -0.0000  -0.0000  -0.0000  -0.0000  -0.0000  -0.0000
    -0.0000  -0.0000  -0.0000  -0.0000  -0.0000  -0.0000  -0.0000  -0.0000
    -0.0000  -0.0000  -0.0000  -0.0000  -0.0000  -0.0000  -0.0000  -0.0000
    -0.0000  -0.0000  -0.0000  -0.0000

          k = 0.0556 0.5453 0.0000 (  5378 PWs)   bands (ev):

   -51.4053 -51.3913 -27.8720 -27.8662 -27.5651 -27.5568 -27.5416 -27.5329
    -8.6762  -8.6460  -8.5124  -8.4809  -2.0115  -1.9721  -1.1307  -1.0169
    -0.3984  -0.3732   0.4551   0.4987   1.5702   1.8959   2.1031   2.1551
     3.1007   3.2044   6.3606   6.3858   6.7880   6.8410   7.3538   7.6314
     7.9523   8.0805   9.3925   9.9388  11.1927  11.2521  11.5320  11.7577
    12.3838  12.7278  13.1170  13.4888  13.6958  13.7870  14.1928  14.3635
    15.0546  15.2827  16.3219  16.8528  17.5301  17.6480  17.8024  18.3600
    18.6415  19.0122  19.4275  19.5958

     occupation numbers 
     1.0000   1.0000   1.0000   1.0000   1.0000   1.0000   1.0000   1.0000
     1.0000   1.0000   1.0000   1.0000   1.0000   1.0000   1.0000   1.0000
     1.0000   1.0000   1.0000   1.0000   1.0000   1.0000   1.0000   1.0000
     0.8077   0.5125  -0.0000  -0.0000  -0.0000  -0.0000  -0.0000  -0.0000
    -0.0000  -0.0000  -0.0000  -0.0000  -0.0000  -0.0000  -0.0000  -0.0000
    -0.0000  -0.0000  -0.0000  -0.0000  -0.0000  -0.0000  -0.0000  -0.0000
    -0.0000  -0.0000  -0.0000  -0.0000  -0.0000  -0.0000  -0.0000  -0.0000
    -0.0000  -0.0000  -0.0000  -0.0000

          k = 0.1111 0.1925 0.0000 (  5365 PWs)   bands (ev):

   -51.4359 -51.4221 -27.6316 -27.6241 -27.5762 -27.5680 -27.4704 -27.4612
    -9.8747  -9.8138  -8.9033  -8.8203  -1.5965  -1.3058  -0.0026   0.0327
     0.4940   0.7605   1.1557   1.1827   1.3996   1.4522   2.3548   2.6494
     3.4647   3.5727   5.7840   6.0269   6.1727   6.2418   6.2563   6.4248
     7.2475   7.3063   9.5070  10.0695  10.6768  11.0204  12.0137  12.1176
    12.6359  13.0102  13.1558  13.2486  13.9906  14.1833  14.5019  14.8760
    14.9021  15.4657  15.7306  15.9314  16.0284  16.8904  17.3080  17.5143
    17.5662  18.1964  18.4014  19.3976

     occupation numbers 
     1.0000   1.0000   1.0000   1.0000   1.0000   1.0000   1.0000   1.0000
     1.0000   1.0000   1.0000   1.0000   1.0000   1.0000   1.0000   1.0000
     1.0000   1.0000   1.0000   1.0000   1.0000   1.0000   1.0000   1.0067
    -0.0180  -0.0337  -0.0000  -0.0000  -0.0000  -0.0000  -0.0000  -0.0000
    -0.0000  -0.0000  -0.0000  -0.0000  -0.0000  -0.0000  -0.0000  -0.0000
    -0.0000  -0.0000  -0.0000  -0.0000  -0.0000  -0.0000  -0.0000  -0.0000
    -0.0000  -0.0000  -0.0000  -0.0000  -0.0000  -0.0000  -0.0000  -0.0000
    -0.0000  -0.0000  -0.0000  -0.0000

          k = 0.1111 0.2566 0.0000 (  5368 PWs)   bands (ev):

   -51.4289 -51.4151 -27.6402 -27.6325 -27.6166 -27.6089 -27.4912 -27.4822
    -9.6326  -9.5745  -8.8227  -8.7487  -1.4247  -1.1687  -0.2687  -0.2389
     0.1980   0.3784   0.7801   0.8568   1.5375   1.5823   2.3107   2.5794
     3.2196   3.2662   5.6870   5.9365   6.1961   6.3232   6.3639   6.5544
     7.5914   7.6552   9.8662  10.3975  11.1815  11.7606  12.0586  12.4070
    12.4957  12.7419  12.9150  13.1590  14.2332  14.4912  14.6271  14.7705
    14.8782  15.4403  15.5828  16.0403  16.3040  16.4256  16.6266  17.6171
    17.7460  18.0525  18.3167  19.4858

     occupation numbers 
     1.0000   1.0000   1.0000   1.0000   1.0000   1.0000   1.0000   1.0000
     1.0000   1.0000   1.0000   1.0000   1.0000   1.0000   1.0000   1.0000
     1.0000   1.0000   1.0000   1.0000   1.0000   1.0000   1.0000   1.0026
     0.4649   0.3247  -0.0000  -0.0000  -0.0000  -0.0000  -0.0000  -0.0000
    -0.0000  -0.0000  -0.0000  -0.0000  -0.0000  -0.0000  -0.0000  -0.0000
    -0.0000  -0.0000  -0.0000  -0.0000  -0.0000  -0.0000  -0.0000  -0.0000
    -0.0000  -0.0000  -0.0000  -0.0000  -0.0000  -0.0000  -0.0000  -0.0000
    -0.0000  -0.0000  -0.0000  -0.0000

          k = 0.1111 0.3208 0.0000 (  5383 PWs)   bands (ev):

   -51.4216 -51.4077 -27.7071 -27.7000 -27.6006 -27.5928 -27.5136 -27.5047
    -9.3600  -9.3062  -8.7319  -8.6685  -1.3990  -1.2275  -0.3929  -0.3136
    -0.1761  -0.0681   0.5534   0.6731   1.6112   1.6522   2.1681   2.4204
     3.0145   3.0530   5.7056   5.9596   6.3103   6.4467   6.5816   6.7795
     7.8674   7.9231  10.2765  10.7200  11.2898  11.6594  11.9828  12.2241
    12.4871  12.7925  13.1210  13.3242  14.2530  14.6870  14.7431  14.8573
    14.9846  15.1163  15.4431  15.8339  16.1375  16.9197  16.9785  17.6655
    17.9188  18.1893  18.3893  18.9994

     occupation numbers 
     1.0000   1.0000   1.0000   1.0000   1.0000   1.0000   1.0000   1.0000
     1.0000   1.0000   1.0000   1.0000   1.0000   1.0000   1.0000   1.0000
     1.0000   1.0000   1.0000   1.0000   1.0000   1.0000   1.0000   1.0002
     0.9641   0.9066  -0.0000  -0.0000  -0.0000  -0.0000  -0.0000  -0.0000
    -0.0000  -0.0000  -0.0000  -0.0000  -0.0000  -0.0000  -0.0000  -0.0000
    -0.0000  -0.0000  -0.0000  -0.0000  -0.0000  -0.0000  -0.0000  -0.0000
    -0.0000  -0.0000  -0.0000  -0.0000  -0.0000  -0.0000  -0.0000  -0.0000
    -0.0000  -0.0000  -0.0000  -0.0000

          k = 0.1111 0.3849 0.0000 (  5386 PWs)   bands (ev):

   -51.4146 -51.4007 -27.7692 -27.7626 -27.5856 -27.5775 -27.5347 -27.5260
    -9.0863  -9.0387  -8.6409  -8.5888  -1.5420  -1.4400  -0.6280  -0.5280
    -0.3110  -0.2373   0.4564   0.5738   1.6156   1.6581   1.9761   2.2260
     2.9585   3.0109   5.8524   6.1022   6.4692   6.5597   6.8573   7.0559
     8.0205   8.0714  10.6551  10.9757  11.0569  11.2688  11.5991  12.0935
    12.2484  13.0307  13.2115  13.7883  14.1338  14.2112  14.5137  15.0518
    15.1838  15.3964  15.5544  16.1146  16.2805  17.2269  17.4265  17.5373
    17.9616  18.3520  18.4636  18.7963

     occupation numbers 
     1.0000   1.0000   1.0000   1.0000   1.0000   1.0000   1.0000   1.0000
     1.0000   1.0000   1.0000   1.0000   1.0000   1.0000   1.0000   1.0000
     1.0000   1.0000   1.0000   1.0000   1.0000   1.0000   1.0000   1.0000
     1.0145   0.9685  -0.0000  -0.0000  -0.0000  -0.0000  -0.0000  -0.0000
    -0.0000  -0.0000  -0.0000  -0.0000  -0.0000  -0.0000  -0.0000  -0.0000
    -0.0000  -0.0000  -0.0000  -0.0000  -0.0000  -0.0000  -0.0000  -0.0000
    -0.0000  -0.0000  -0.0000  -0.0000  -0.0000  -0.0000  -0.0000  -0.0000
    -0.0000  -0.0000  -0.0000  -0.0000

          k = 0.1111 0.4491 0.0000 (  5376 PWs)   bands (ev):

   -51.4090 -51.3950 -27.8192 -27.8130 -27.5732 -27.5650 -27.5519 -27.5433
    -8.8473  -8.8075  -8.5615  -8.5204  -1.7201  -1.6555  -0.9533  -0.8624
    -0.3054  -0.2551   0.4305   0.5259   1.6147   1.6688   1.7885   2.0466
     3.0456   3.1151   6.0740   6.2719   6.6300   6.6828   7.1415   7.3246
     8.0052   8.1051  10.2745  10.6810  11.2137  11.3991  11.4888  11.9793
    12.2824  13.0894  13.2962  13.4537  13.9041  14.0460  14.1364  14.9051
    15.4925  15.5243  16.1389  16.5699  16.6395  16.8844  17.6498  17.7290
    17.9961  18.1366  18.5503  19.1711

     occupation numbers 
     1.0000   1.0000   1.0000   1.0000   1.0000   1.0000   1.0000   1.0000
     1.0000   1.0000   1.0000   1.0000   1.0000   1.0000   1.0000   1.0000
     1.0000   1.0000   1.0000   1.0000   1.0000   1.0000   1.0000   1.0000
     0.9191   0.7720  -0.0000  -0.0000  -0.0000  -0.0000  -0.0000  -0.0000
    -0.0000  -0.0000  -0.0000  -0.0000  -0.0000  -0.0000  -0.0000  -0.0000
    -0.0000  -0.0000  -0.0000  -0.0000  -0.0000  -0.0000  -0.0000  -0.0000
    -0.0000  -0.0000  -0.0000  -0.0000  -0.0000  -0.0000  -0.0000  -0.0000
    -0.0000  -0.0000  -0.0000  -0.0000

          k = 0.1111 0.5132 0.0000 (  5380 PWs)   bands (ev):

   -51.4053 -51.3913 -27.8517 -27.8457 -27.5652 -27.5631 -27.5569 -27.5546
    -8.6817  -8.6498  -8.5065  -8.4740  -1.8472  -1.8060  -1.1681  -1.0804
    -0.3428  -0.3169   0.4395   0.5078   1.6236   1.6586   1.6997   1.9199
     3.1829   3.2682   6.2443   6.3296   6.7886   6.8723   7.4033   7.5485
     7.8596   8.0379   9.6926  10.2782  11.4599  11.6293  11.7574  12.0301
    12.3885  12.8804  12.9967  13.4542  13.6920  13.8427  14.0064  14.6518
    15.2931  15.6344  16.1533  16.5745  17.1621  17.3035  17.6119  17.8725
    18.2492  18.4694  18.7374  19.2659

     occupation numbers 
     1.0000   1.0000   1.0000   1.0000   1.0000   1.0000   1.0000   1.0000
     1.0000   1.0000   1.0000   1.0000   1.0000   1.0000   1.0000   1.0000
     1.0000   1.0000   1.0000   1.0000   1.0000   1.0000   1.0000   1.0000
     0.5789   0.3189  -0.0000  -0.0000  -0.0000  -0.0000  -0.0000  -0.0000
    -0.0000  -0.0000  -0.0000  -0.0000  -0.0000  -0.0000  -0.0000  -0.0000
    -0.0000  -0.0000  -0.0000  -0.0000  -0.0000  -0.0000  -0.0000  -0.0000
    -0.0000  -0.0000  -0.0000  -0.0000  -0.0000  -0.0000  -0.0000  -0.0000
    -0.0000  -0.0000  -0.0000  -0.0000

          k = 0.1111 0.5774 0.0000 (  5372 PWs)   bands (ev):

   -51.4040 -51.3900 -27.8629 -27.8570 -27.5670 -27.5624 -27.5585 -27.5540
    -8.6220  -8.5940  -8.4865  -8.4574  -1.8916  -1.8605  -1.2426  -1.1556
    -0.3677  -0.3478   0.4492   0.5030   1.5912   1.6497   1.7153   1.8734
     3.2499   3.3417   6.2915   6.3270   6.8802   6.9787   7.5922   7.6619
     7.6951   7.9665   9.4573  10.0900  11.6103  11.7585  11.9283  12.0913
    12.5392  12.6753  12.6813  13.3675  13.6715  13.8136  14.2424  14.3419
    15.1426  15.4457  16.3107  16.6995  17.0986  17.4741  17.7212  17.9023
    18.4339  18.5338  19.1632  19.2459

     occupation numbers 
     1.0000   1.0000   1.0000   1.0000   1.0000   1.0000   1.0000   1.0000
     1.0000   1.0000   1.0000   1.0000   1.0000   1.0000   1.0000   1.0000
     1.0000   1.0000   1.0000   1.0000   1.0000   1.0000   1.0000   1.0000
     0.3726   0.1355  -0.0000  -0.0000  -0.0000  -0.0000  -0.0000  -0.0000
    -0.0000  -0.0000  -0.0000  -0.0000  -0.0000  -0.0000  -0.0000  -0.0000
    -0.0000  -0.0000  -0.0000  -0.0000  -0.0000  -0.0000  -0.0000  -0.0000
    -0.0000  -0.0000  -0.0000  -0.0000  -0.0000  -0.0000  -0.0000  -0.0000
    -0.0000  -0.0000  -0.0000  -0.0000

          k = 0.1667 0.2887 0.0000 (  5372 PWs)   bands (ev):

   -51.4223 -51.4084 -27.6948 -27.6876 -27.6021 -27.5942 -27.5179 -27.5091
    -9.3863  -9.3320  -8.7397  -8.6751  -1.3556  -1.1677  -0.3749  -0.3021
    -0.0678  -0.0017   0.4364   0.5811   1.5175   1.5571   2.2884   2.5122
     3.0625   3.0681   5.6389   5.9138   6.3201   6.4429   6.4914   6.6776
     7.8999   7.9611  10.2549  10.7322  11.4518  11.8805  12.1170  12.3645
    12.7658  12.8246  13.0217  13.1438  14.2255  14.4504  14.6625  14.7474
    14.8094  14.9830  15.1095  15.9215  16.0095  16.9092  16.9117  17.6898
    17.9967  18.2383  18.4436  19.6905

     occupation numbers 
     1.0000   1.0000   1.0000   1.0000   1.0000   1.0000   1.0000   1.0000
     1.0000   1.0000   1.0000   1.0000   1.0000   1.0000   1.0000   1.0000
     1.0000   1.0000   1.0000   1.0000   1.0000   1.0000   1.0000   1.0009
     0.8892   0.8785  -0.0000  -0.0000  -0.0000  -0.0000  -0.0000  -0.0000
    -0.0000  -0.0000  -0.0000  -0.0000  -0.0000  -0.0000  -0.0000  -0.0000
    -0.0000  -0.0000  -0.0000  -0.0000  -0.0000  -0.0000  -0.0000  -0.0000
    -0.0000  -0.0000  -0.0000  -0.0000  -0.0000  -0.0000  -0.0000  -0.0000
    -0.0000  -0.0000  -0.0000  -0.0000

          k = 0.1667 0.3528 0.0000 (  5385 PWs)   bands (ev):

   -51.4156 -51.4016 -27.7471 -27.7403 -27.5876 -27.5795 -27.5464 -27.5378
    -9.1251  -9.0763  -8.6508  -8.5967  -1.4218  -1.3010  -0.5231  -0.4724
    -0.2888  -0.2017   0.3245   0.4899   1.3763   1.4138   2.1545   2.3497
     2.9968   3.0282   5.7255   6.0425   6.5035   6.5693   6.6874   6.8647
     8.1047   8.1570  10.6682  11.0518  11.3580  11.5166  11.9516  12.2838
    12.6006  13.1881  13.2163  13.6268  14.0115  14.1763  14.4990  14.6490
    14.8224  15.1706  15.4227  15.6761  16.0296  17.2582  17.2961  17.4106
    18.1169  18.2595  18.8196  18.9869

     occupation numbers 
     1.0000   1.0000   1.0000   1.0000   1.0000   1.0000   1.0000   1.0000
     1.0000   1.0000   1.0000   1.0000   1.0000   1.0000   1.0000   1.0000
     1.0000   1.0000   1.0000   1.0000   1.0000   1.0000   1.0000   1.0000
     0.9841   0.9459  -0.0000  -0.0000  -0.0000  -0.0000  -0.0000  -0.0000
    -0.0000  -0.0000  -0.0000  -0.0000  -0.0000  -0.0000  -0.0000  -0.0000
    -0.0000  -0.0000  -0.0000  -0.0000  -0.0000  -0.0000  -0.0000  -0.0000
    -0.0000  -0.0000  -0.0000  -0.0000  -0.0000  -0.0000  -0.0000  -0.0000
    -0.0000  -0.0000  -0.0000  -0.0000

          k = 0.1667 0.4170 0.0000 (  5388 PWs)   bands (ev):

   -51.4097 -51.3957 -27.7916 -27.7852 -27.5748 -27.5724 -27.5666 -27.5639
    -8.8805  -8.8388  -8.5668  -8.5235  -1.5410  -1.4593  -0.9129  -0.8595
    -0.2385  -0.1599   0.3363   0.4845   1.2144   1.2554   1.9530   2.1431
     3.0716   3.1148   5.9225   6.2270   6.6705   6.6759   6.9298   7.0970
     8.1592   8.2430  10.6852  11.0311  11.2960  11.4952  11.7149  12.3215
    12.4935  13.0222  13.4091  13.5819  13.7327  14.2349  14.3940  15.1277
    15.2376  15.3078  15.4966  15.9943  16.2523  17.0173  17.2012  17.5548
    17.7801  18.1236  18.5484  18.8191

     occupation numbers 
     1.0000   1.0000   1.0000   1.0000   1.0000   1.0000   1.0000   1.0000
     1.0000   1.0000   1.0000   1.0000   1.0000   1.0000   1.0000   1.0000
     1.0000   1.0000   1.0000   1.0000   1.0000   1.0000   1.0000   1.0000
     0.8715   0.7728  -0.0000  -0.0000  -0.0000  -0.0000  -0.0000  -0.0000
    -0.0000  -0.0000  -0.0000  -0.0000  -0.0000  -0.0000  -0.0000  -0.0000
    -0.0000  -0.0000  -0.0000  -0.0000  -0.0000  -0.0000  -0.0000  -0.0000
    -0.0000  -0.0000  -0.0000  -0.0000  -0.0000  -0.0000  -0.0000  -0.0000
    -0.0000  -0.0000  -0.0000  -0.0000

          k = 0.1667 0.4811 0.0000 (  5371 PWs)   bands (ev):

   -51.4053 -51.3913 -27.8240 -27.8179 -27.5921 -27.5837 -27.5652 -27.5569
    -8.6878  -8.6542  -8.4997  -8.4661  -1.6337  -1.5805  -1.2065  -1.1492
    -0.2594  -0.2137   0.4015   0.5188   1.1200   1.1841   1.7487   1.9509
     3.2305   3.2866   6.0922   6.2486   6.8076   6.9066   7.1806   7.3109
     8.0754   8.2397  10.1060  10.6954  11.5801  11.7152  11.9310  12.2893
    12.6097  12.7840  13.2230  13.5847  13.7173  14.0881  14.3078  14.9051
    15.3618  15.6734  15.9547  16.3697  16.5831  16.6526  17.1515  17.4931
    17.7806  18.1765  18.4430  18.7262

     occupation numbers 
     1.0000   1.0000   1.0000   1.0000   1.0000   1.0000   1.0000   1.0000
     1.0000   1.0000   1.0000   1.0000   1.0000   1.0000   1.0000   1.0000
     1.0000   1.0000   1.0000   1.0000   1.0000   1.0000   1.0000   1.0000
     0.4314   0.2674  -0.0000  -0.0000  -0.0000  -0.0000  -0.0000  -0.0000
    -0.0000  -0.0000  -0.0000  -0.0000  -0.0000  -0.0000  -0.0000  -0.0000
    -0.0000  -0.0000  -0.0000  -0.0000  -0.0000  -0.0000  -0.0000  -0.0000
    -0.0000  -0.0000  -0.0000  -0.0000  -0.0000  -0.0000  -0.0000  -0.0000
    -0.0000  -0.0000  -0.0000  -0.0000

          k = 0.1667 0.5453 0.0000 (  5388 PWs)   bands (ev):

   -51.4029 -51.3889 -27.8411 -27.8351 -27.6027 -27.5944 -27.5602 -27.5518
    -8.5807  -8.5536  -8.4617  -8.4341  -1.6748  -1.6473  -1.3613  -1.3021
    -0.3161  -0.2835   0.4674   0.5510   1.0902   1.1722   1.6141   1.8310
     3.3677   3.4375   6.1259   6.1710   6.9692   7.1177   7.3704   7.4420
     7.9517   8.1953   9.7099  10.3749  11.8154  12.0704  12.2520  12.3355
    12.5079  12.7757  12.9091  13.3014  13.8477  14.1392  14.2259  14.6927
    15.2759  15.6333  16.1822  16.2609  16.6842  17.0897  17.2035  17.4253
    17.9153  18.2650  18.6197  18.8642

     occupation numbers 
     1.0000   1.0000   1.0000   1.0000   1.0000   1.0000   1.0000   1.0000
     1.0000   1.0000   1.0000   1.0000   1.0000   1.0000   1.0000   1.0000
     1.0000   1.0000   1.0000   1.0000   1.0000   1.0000   1.0000   1.0000
     0.0865  -0.0000  -0.0000  -0.0000  -0.0000  -0.0000  -0.0000  -0.0000
    -0.0000  -0.0000  -0.0000  -0.0000  -0.0000  -0.0000  -0.0000  -0.0000
    -0.0000  -0.0000  -0.0000  -0.0000  -0.0000  -0.0000  -0.0000  -0.0000
    -0.0000  -0.0000  -0.0000  -0.0000  -0.0000  -0.0000  -0.0000  -0.0000
    -0.0000  -0.0000  -0.0000  -0.0000

          k = 0.2222 0.3849 0.0000 (  5374 PWs)   bands (ev):

   -51.4099 -51.3959 -27.7792 -27.7727 -27.5824 -27.5753 -27.5740 -27.5671
    -8.8921  -8.8497  -8.5683  -8.5242  -1.4640  -1.3715  -0.8911  -0.8632
    -0.2036  -0.1016   0.2954   0.4644   1.0394   1.0693   2.0273   2.1823
     3.0782   3.1101   5.8655   6.2054   6.6796   6.6877   6.8387   6.9977
     8.2506   8.2976  10.8832  11.1618  11.3559  11.4178  11.8574  12.4318
    12.7053  13.0524  13.2201  13.5561  14.1214  14.2645  14.5652  14.8049
    15.0581  15.3519  15.5195  15.5823  15.8852  16.9801  17.2692  17.4143
    17.8718  18.0797  18.3898  19.2046

     occupation numbers 
     1.0000   1.0000   1.0000   1.0000   1.0000   1.0000   1.0000   1.0000
     1.0000   1.0000   1.0000   1.0000   1.0000   1.0000   1.0000   1.0000
     1.0000   1.0000   1.0000   1.0000   1.0000   1.0000   1.0000   1.0000
     0.8580   0.7846  -0.0000  -0.0000  -0.0000  -0.0000  -0.0000  -0.0000
    -0.0000  -0.0000  -0.0000  -0.0000  -0.0000  -0.0000  -0.0000  -0.0000
    -0.0000  -0.0000  -0.0000  -0.0000  -0.0000  -0.0000  -0.0000  -0.0000
    -0.0000  -0.0000  -0.0000  -0.0000  -0.0000  -0.0000  -0.0000  -0.0000
    -0.0000  -0.0000  -0.0000  -0.0000

          k = 0.2222 0.4491 0.0000 (  5367 PWs)   bands (ev):

   -51.4053 -51.3913 -27.8015 -27.7952 -27.6155 -27.6073 -27.5653 -27.5570
    -8.6917  -8.6570  -8.4953  -8.4609  -1.4742  -1.4009  -1.2279  -1.1931
    -0.1636  -0.0794   0.3716   0.5228   0.7364   0.7728   1.8309   1.9704
     3.2537   3.2810   5.9906   6.1898   6.8143   6.9167   7.0280   7.1497
     8.3060   8.3807  10.5458  10.9115  11.4865  11.6562  11.8039  12.6176
    12.7318  12.8963  13.1493  13.8944  14.1605  14.4353  14.6629  15.1525
    15.2715  15.3646  15.5344  15.8278  16.2293  16.6766  16.7116  17.2538
    17.5702  17.9574  18.0817  18.6725

     occupation numbers 
     1.0000   1.0000   1.0000   1.0000   1.0000   1.0000   1.0000   1.0000
     1.0000   1.0000   1.0000   1.0000   1.0000   1.0000   1.0000   1.0000
     1.0000   1.0000   1.0000   1.0000   1.0000   1.0000   1.0000   1.0000
     0.3613   0.2829  -0.0000  -0.0000  -0.0000  -0.0000  -0.0000  -0.0000
    -0.0000  -0.0000  -0.0000  -0.0000  -0.0000  -0.0000  -0.0000  -0.0000
    -0.0000  -0.0000  -0.0000  -0.0000  -0.0000  -0.0000  -0.0000  -0.0000
    -0.0000  -0.0000  -0.0000  -0.0000  -0.0000  -0.0000  -0.0000  -0.0000
    -0.0000  -0.0000  -0.0000  -0.0000

          k = 0.2222 0.5132 0.0000 (  5371 PWs)   bands (ev):

   -51.4022 -51.3883 -27.8139 -27.8078 -27.6392 -27.6311 -27.5587 -27.5503
    -8.5552  -8.5282  -8.4438  -8.4168  -1.4603  -1.4312  -1.4208  -1.3815
    -0.2392  -0.1695   0.4846   0.5579   0.6116   0.6483   1.6400   1.7831
     3.4551   3.4926   5.9537   6.0139   6.9849   7.1043   7.2225   7.3237
     8.2961   8.4304  10.0938  10.6880  11.3411  11.8913  12.0885  12.6826
    12.9060  13.0661  13.2634  13.9484  14.0744  14.4432  14.6378  14.9999
    15.2360  15.5662  15.8638  16.0648  16.3150  16.5906  16.6414  16.9349
    17.6135  17.8310  17.9689  18.6452

     occupation numbers 
     1.0000   1.0000   1.0000   1.0000   1.0000   1.0000   1.0000   1.0000
     1.0000   1.0000   1.0000   1.0000   1.0000   1.0000   1.0000   1.0000
     1.0000   1.0000   1.0000   1.0000   1.0000   1.0000   1.0000   1.0000
    -0.0125  -0.0292  -0.0000  -0.0000  -0.0000  -0.0000  -0.0000  -0.0000
    -0.0000  -0.0000  -0.0000  -0.0000  -0.0000  -0.0000  -0.0000  -0.0000
    -0.0000  -0.0000  -0.0000  -0.0000  -0.0000  -0.0000  -0.0000  -0.0000
    -0.0000  -0.0000  -0.0000  -0.0000  -0.0000  -0.0000  -0.0000  -0.0000
    -0.0000  -0.0000  -0.0000  -0.0000

          k = 0.2222 0.5774 0.0000 (  5354 PWs)   bands (ev):

   -51.4012 -51.3872 -27.8178 -27.8117 -27.6478 -27.6398 -27.5564 -27.5480
    -8.5067  -8.4837  -8.4248  -8.4004  -1.5298  -1.4900  -1.4047  -1.3841
    -0.2993  -0.2366   0.5166   0.5477   0.6210   0.6515   1.5552   1.7037
     3.5516   3.5979   5.8913   5.9149   7.0839   7.1331   7.3275   7.4205
     8.2820   8.4449   9.9063  10.5493  11.3221  11.9947  12.2492  12.6926
    13.1237  13.1269  13.4151  13.5349  14.2634  14.3525  14.7348  14.8051
    15.4048  15.4747  15.8429  15.9397  16.4287  16.6921  16.7260  16.8942
    17.6588  17.7331  18.1019  18.7470

     occupation numbers 
     1.0000   1.0000   1.0000   1.0000   1.0000   1.0000   1.0000   1.0000
     1.0000   1.0000   1.0000   1.0000   1.0000   1.0000   1.0000   1.0000
     1.0000   1.0000   1.0000   1.0000   1.0000   1.0000   1.0000   1.0000
    -0.0353  -0.0306  -0.0000  -0.0000  -0.0000  -0.0000  -0.0000  -0.0000
    -0.0000  -0.0000  -0.0000  -0.0000  -0.0000  -0.0000  -0.0000  -0.0000
    -0.0000  -0.0000  -0.0000  -0.0000  -0.0000  -0.0000  -0.0000  -0.0000
    -0.0000  -0.0000  -0.0000  -0.0000  -0.0000  -0.0000  -0.0000  -0.0000
    -0.0000  -0.0000  -0.0000  -0.0000

          k = 0.2778 0.4811 0.0000 (  5360 PWs)   bands (ev):

   -51.4020 -51.3880 -27.7993 -27.7931 -27.6571 -27.6491 -27.5582 -27.5498
    -8.5467  -8.5196  -8.4372  -8.4103  -1.4857  -1.4540  -1.3278  -1.2563
    -0.1601  -0.0512   0.2904   0.3429   0.4962   0.6348   1.6558   1.7584
     3.4962   3.5048   5.8812   5.9491   6.9467   7.0515   7.1965   7.3420
     8.4628   8.5066  10.4739  10.6037  11.3201  11.5165  12.0222  12.9155
    13.0148  13.2579  13.3456  14.2969  14.4714  14.6524  14.8273  15.0273
    15.2106  15.4644  15.7207  15.8360  16.1196  16.2257  16.6409  16.9331
    17.0023  17.6900  17.8485  18.6454

     occupation numbers 
     1.0000   1.0000   1.0000   1.0000   1.0000   1.0000   1.0000   1.0000
     1.0000   1.0000   1.0000   1.0000   1.0000   1.0000   1.0000   1.0000
     1.0000   1.0000   1.0000   1.0000   1.0000   1.0000   1.0000   1.0000
    -0.0301  -0.0321  -0.0000  -0.0000  -0.0000  -0.0000  -0.0000  -0.0000
    -0.0000  -0.0000  -0.0000  -0.0000  -0.0000  -0.0000  -0.0000  -0.0000
    -0.0000  -0.0000  -0.0000  -0.0000  -0.0000  -0.0000  -0.0000  -0.0000
    -0.0000  -0.0000  -0.0000  -0.0000  -0.0000  -0.0000  -0.0000  -0.0000
    -0.0000  -0.0000  -0.0000  -0.0000

          k = 0.2778 0.5453 0.0000 (  5360 PWs)   bands (ev):

   -51.4003 -51.3863 -27.7914 -27.7853 -27.6860 -27.6781 -27.5544 -27.5460
    -8.4680  -8.4475  -8.4036  -8.3804  -1.6244  -1.5915  -1.1523  -1.0984
    -0.2992  -0.1945   0.0823   0.1882   0.6161   0.7376   1.5125   1.5933
     3.6915   3.7090   5.6948   5.7181   7.0002   7.0466   7.4120   7.5354
     8.5426   8.6085  10.2328  10.6490  10.9386  11.5106  12.2011  13.1892
    13.3809  13.5416  13.7932  14.1587  14.4153  14.7412  14.7909  15.1240
    15.2723  15.4239  15.5643  15.9176  16.0889  16.3876  16.4201  16.7039
    16.9086  17.2836  18.1964  18.5966

     occupation numbers 
     1.0000   1.0000   1.0000   1.0000   1.0000   1.0000   1.0000   1.0000
     1.0000   1.0000   1.0000   1.0000   1.0000   1.0000   1.0000   1.0000
     1.0000   1.0000   1.0000   1.0000   1.0000   1.0000   1.0000   1.0000
    -0.0154  -0.0130  -0.0000  -0.0000  -0.0000  -0.0000  -0.0000  -0.0000
    -0.0000  -0.0000  -0.0000  -0.0000  -0.0000  -0.0000  -0.0000  -0.0000
    -0.0000  -0.0000  -0.0000  -0.0000  -0.0000  -0.0000  -0.0000  -0.0000
    -0.0000  -0.0000  -0.0000  -0.0000  -0.0000  -0.0000  -0.0000  -0.0000
    -0.0000  -0.0000  -0.0000  -0.0000

          k = 0.3333 0.5774 0.0000 (  5358 PWs)   bands (ev):

   -51.3996 -51.3856 -27.7729 -27.7670 -27.7129 -27.7048 -27.5530 -27.5445
    -8.4378  -8.4207  -8.3887  -8.3660  -1.6861  -1.6543  -0.9276  -0.8550
    -0.4376  -0.4223  -0.0019   0.0140   0.6849   0.8076   1.4603   1.4862
     3.8109   3.8132   5.5525   5.5774   6.9757   7.0144   7.5580   7.5927
     8.6485   8.6816  10.3803  10.6626  10.6684  11.3264  12.2314  13.6277
    13.6304  13.6409  14.1969  14.2077  14.5348  14.5390  14.9574  14.9872
    14.9995  15.5940  15.6917  16.0355  16.1271  16.1303  16.2688  16.5674
    16.5704  17.1198  18.5458  18.5669

     occupation numbers 
     1.0000   1.0000   1.0000   1.0000   1.0000   1.0000   1.0000   1.0000
     1.0000   1.0000   1.0000   1.0000   1.0000   1.0000   1.0000   1.0000
     1.0000   1.0000   1.0000   1.0000   1.0000   1.0000   1.0000   1.0000
    -0.0038  -0.0036  -0.0000  -0.0000  -0.0000  -0.0000  -0.0000  -0.0000
    -0.0000  -0.0000  -0.0000  -0.0000  -0.0000  -0.0000  -0.0000  -0.0000
    -0.0000  -0.0000  -0.0000  -0.0000  -0.0000  -0.0000  -0.0000  -0.0000
    -0.0000  -0.0000  -0.0000  -0.0000  -0.0000  -0.0000  -0.0000  -0.0000
    -0.0000  -0.0000  -0.0000  -0.0000

     the Fermi energy is     3.2084 ev

!    total energy              =    -907.91149672 Ry

     total all-electron energy =    -18448.320519 Ry
     estimated scf accuracy    <          4.2E-10 Ry
     smearing contrib. (-TS)   =      -0.00193358 Ry
     internal energy E=F+TS    =    -907.90956315 Ry

     The total energy is F=E-TS. E is the sum of the following terms:
     one-electron contribution =   -1048.08174491 Ry
     hartree contribution      =     537.56948923 Ry
     xc contribution           =     -65.32319121 Ry
     ewald contribution        =     256.18108273 Ry
     one-center paw contrib.   =    -588.25519899 Ry
      -> PAW hartree energy AE =     100.87597097 Ry
      -> PAW hartree energy PS =    -100.36184519 Ry
      -> PAW xc energy AE      =    -324.79852198 Ry
      -> PAW xc energy PS      =      30.15761185 Ry
      -> total E_H with PAW    =     538.08361501 Ry
      -> total E_XC with PAW   =    -359.96410134 Ry

     convergence has been achieved in  14 iterations

     Writing output data file ./tmp/NbS2_bi.save/

     init_run     :     10.15s CPU     10.41s WALL (       1 calls)
     electrons    :    483.18s CPU    490.15s WALL (       1 calls)

     Called by init_run:
     wfcinit      :      8.71s CPU      8.87s WALL (       1 calls)
     wfcinit:atom :      0.04s CPU      0.05s WALL (      37 calls)
     wfcinit:wfcr :      8.46s CPU      8.62s WALL (      37 calls)
     potinit      :      0.33s CPU      0.34s WALL (       1 calls)
     hinit0       :      0.62s CPU      0.62s WALL (       1 calls)

     Called by electrons:
     c_bands      :    418.61s CPU    421.88s WALL (      15 calls)
     sum_band     :     56.87s CPU     59.11s WALL (      15 calls)
     v_of_rho     :      0.47s CPU      0.51s WALL (      15 calls)
     v_h          :      0.27s CPU      0.27s WALL (      15 calls)
     v_xc         :      0.20s CPU      0.23s WALL (      15 calls)
     newd         :      6.00s CPU      7.46s WALL (      15 calls)
     PAW_pot      :      0.88s CPU      0.88s WALL (      15 calls)
     mix_rho      :      0.53s CPU      0.54s WALL (      15 calls)

     Called by c_bands:
     init_us_2    :      1.66s CPU      1.70s WALL (    1147 calls)
     cegterg      :    413.71s CPU    416.81s WALL (     555 calls)

     Called by sum_band:
     sum_band:wei :      0.04s CPU      0.04s WALL (      15 calls)
     sum_band:loo :     47.95s CPU     48.53s WALL (      15 calls)
     sum_band:buf :      0.72s CPU      0.72s WALL (     555 calls)
     sum_band:ini :      0.77s CPU      0.77s WALL (     555 calls)
     sum_band:cal :     12.19s CPU     12.22s WALL (     555 calls)
     sum_band:bec :      0.06s CPU      0.07s WALL (     555 calls)
     addusdens    :      8.52s CPU     10.17s WALL (      15 calls)
     addusd:skk   :      0.04s CPU      0.05s WALL (      30 calls)
     addusd:dgemm :      3.37s CPU      4.77s WALL (      30 calls)
     addusd:qvan2 :      4.61s CPU      4.62s WALL (      30 calls)

     Called by *egterg:
     cdiaghg      :     14.85s CPU     14.90s WALL (    2567 calls)
     cegterg:over :     49.34s CPU     49.47s WALL (    2049 calls)
     cegterg:upda :     26.85s CPU     26.91s WALL (    2049 calls)
     cegterg:last :     73.54s CPU     73.61s WALL (     985 calls)
     h_psi        :    204.51s CPU    207.34s WALL (    2641 calls)
     s_psi        :     26.06s CPU     26.14s WALL (    2641 calls)
     g_psi        :      0.57s CPU      0.57s WALL (    2049 calls)

     Called by h_psi:
     h_psi:calbec :     30.06s CPU     30.21s WALL (    2641 calls)
     vloc_psi     :    148.14s CPU    150.76s WALL (    2641 calls)
     add_vuspsi   :     24.68s CPU     24.73s WALL (    2641 calls)

     General routines
     calbec       :     42.23s CPU     42.41s WALL (    3196 calls)
     fft          :      1.20s CPU      1.24s WALL (      89 calls)
     ffts         :      0.06s CPU      0.06s WALL (      30 calls)
     fftw         :    161.21s CPU    164.05s WALL (  192340 calls)
     interpolate  :      0.25s CPU      0.26s WALL (      15 calls)

     Parallel routines
     fft_scatt_xy :     18.11s CPU     18.42s WALL (  192459 calls)
     fft_scatt_yz :     12.47s CPU     12.75s WALL (  192459 calls)

     PAW routines
     PAW_pot      :      0.88s CPU      0.88s WALL (      15 calls)
     PAW_symme    :      0.01s CPU      0.01s WALL (      30 calls)

     PWSCF        :   8m14.62s CPU   8m23.37s WALL


   This run was terminated on:  17:40:42  14Jun2021            

=------------------------------------------------------------------------------=
   JOB DONE.
=------------------------------------------------------------------------------=
