
     Program PWSCF v.6.6 starts on 14Jun2021 at 17:24:37 

     This program is part of the open-source Quantum ESPRESSO suite
     for quantum simulation of materials; please cite
         "P. Giannozzi et al., J. Phys.:Condens. Matter 21 395502 (2009);
         "P. Giannozzi et al., J. Phys.:Condens. Matter 29 465901 (2017);
          URL http://www.quantum-espresso.org", 
     in publications or presentations arising from this work. More details at
     http://www.quantum-espresso.org/quote

     Parallel version (MPI), running on     2 processors

     MPI processes distributed on     1 nodes
     R & G space division:  proc/nbgrp/npool/nimage =       2
     Fft bands division:     nmany     =       1
     Waiting for input...
     Reading input from standard input

     Current dimensions of program PWSCF are:
     Max number of different atomic species (ntypx) = 10
     Max number of k-points (npk) =  40000
     Max angular momentum in pseudopotentials (lmaxx) =  3
     file Nb.pz-spn-kjpaw_psl.1.0.0.UPF: wavefunction(s)  4S 4P 4D renormalized
     file S.pz-n-kjpaw_psl.0.1.UPF: wavefunction(s)  3P renormalized

     Subspace diagonalization in iterative solution of the eigenvalue problem:
     a serial algorithm will be used


     Parallelization info
     --------------------
     sticks:   dense  smooth     PW     G-vecs:    dense   smooth      PW
     Min         534     210     60                85019    21488    3564
     Max         535     211     61                85022    21517    3587
     Sum        1069     421    121               170041    43005    7151



     bravais-lattice index     =            4
     lattice parameter (alat)  =       6.2006  a.u.
     unit-cell volume          =    1258.4114 (a.u.)^3
     number of atoms/cell      =            6
     number of atomic types    =            2
     number of electrons       =        50.00
     number of Kohn-Sham states=           60
     kinetic-energy cutoff     =      40.0000  Ry
     charge density cutoff     =     400.0000  Ry
     convergence threshold     =      1.0E-08
     mixing beta               =       0.7000
     number of iterations used =            8  plain     mixing
     Exchange-correlation= SLA PZ NOGX NOGC
                           (   1   1   0   0   0   0   0)

     celldm(1)=   6.200569  celldm(2)=   0.000000  celldm(3)=   6.095331
     celldm(4)=   0.000000  celldm(5)=   0.000000  celldm(6)=   0.000000

     crystal axes: (cart. coord. in units of alat)
               a(1) = (   1.000000   0.000000   0.000000 )  
               a(2) = (  -0.500000   0.866025   0.000000 )  
               a(3) = (   0.000000   0.000000   6.095331 )  

     reciprocal axes: (cart. coord. in units 2 pi/alat)
               b(1) = (  1.000000  0.577350 -0.000000 )  
               b(2) = (  0.000000  1.154701  0.000000 )  
               b(3) = (  0.000000 -0.000000  0.164060 )  


     PseudoPot. # 1 for Nb read from file:
     ../Nb.pz-spn-kjpaw_psl.1.0.0.UPF
     MD5 check sum: 38c2e04b3cc915696ca8dc9f46a23270
     Pseudo is Projector augmented-wave + core cor, Zval = 13.0
     Generated using "atomic" code by A. Dal Corso v.6.2.2
     Shape of augmentation charge: PSQ
     Using radial grid of 1227 points,  6 beta functions with: 
                l(1) =   0
                l(2) =   0
                l(3) =   1
                l(4) =   1
                l(5) =   2
                l(6) =   2
     Q(r) pseudized with 0 coefficients 


     PseudoPot. # 2 for S  read from file:
     ../S.pz-n-kjpaw_psl.0.1.UPF
     MD5 check sum: c0b1682311cf098e03f7841691d9a679
     Pseudo is Projector augmented-wave + core cor, Zval =  6.0
     Generated using "atomic" code by A. Dal Corso v.5.0.2 svn rev. 9415
     Shape of augmentation charge: PSQ
     Using radial grid of 1151 points,  4 beta functions with: 
                l(1) =   0
                l(2) =   0
                l(3) =   1
                l(4) =   1
     Q(r) pseudized with 0 coefficients 


     atomic species   valence    mass     pseudopotential
        Nb            13.00    92.90600     Nb( 1.00)
        S              6.00    32.06500     S ( 1.00)

      6 Sym. Ops. (no inversion) found


                                    s                        frac. trans.

      isym =  1     identity                                     

 cryst.   s( 1) = (     1          0          0      )
                  (     0          1          0      )
                  (     0          0          1      )

 cart.    s( 1) = (  1.0000000  0.0000000  0.0000000 )
                  (  0.0000000  1.0000000  0.0000000 )
                  (  0.0000000  0.0000000  1.0000000 )


      isym =  2     120 deg rotation - cryst. axis [0,0,1]       

 cryst.   s( 2) = (     0          1          0      )
                  (    -1         -1          0      )
                  (     0          0          1      )

 cart.    s( 2) = ( -0.5000000 -0.8660254  0.0000000 )
                  (  0.8660254 -0.5000000  0.0000000 )
                  (  0.0000000  0.0000000  1.0000000 )


      isym =  3     120 deg rotation - cryst. axis [0,0,-1]      

 cryst.   s( 3) = (    -1         -1          0      )
                  (     1          0          0      )
                  (     0          0          1      )

 cart.    s( 3) = ( -0.5000000  0.8660254  0.0000000 )
                  ( -0.8660254 -0.5000000  0.0000000 )
                  (  0.0000000  0.0000000  1.0000000 )


      isym =  4     inv. 180 deg rotation - cart. axis [1,0,0]   

 cryst.   s( 4) = (    -1          0          0      )
                  (     1          1          0      )
                  (     0          0          1      )

 cart.    s( 4) = ( -1.0000000  0.0000000  0.0000000 )
                  (  0.0000000  1.0000000  0.0000000 )
                  (  0.0000000  0.0000000  1.0000000 )


      isym =  5     inv. 180 deg rotation - cryst. axis [0,1,0]  

 cryst.   s( 5) = (     1          1          0      )
                  (     0         -1          0      )
                  (     0          0          1      )

 cart.    s( 5) = (  0.5000000  0.8660254  0.0000000 )
                  (  0.8660254 -0.5000000  0.0000000 )
                  (  0.0000000  0.0000000  1.0000000 )


      isym =  6     inv. 180 deg rotation - cryst. axis [1,1,0]  

 cryst.   s( 6) = (     0         -1          0      )
                  (    -1          0          0      )
                  (     0          0          1      )

 cart.    s( 6) = (  0.5000000 -0.8660254  0.0000000 )
                  ( -0.8660254 -0.5000000  0.0000000 )
                  (  0.0000000  0.0000000  1.0000000 )


     point group C_3v (3m)  
     there are  3 classes
     the character table:

       E     2C3   3s_v 
A_1    1.00  1.00  1.00
A_2    1.00  1.00 -1.00
E      2.00 -1.00  0.00

     the symmetry operations in each class and the name of the first element:

     E        1
          identity                                               
     2C3      2    3
          120 deg rotation - cryst. axis [0,0,1]                 
     3s_v     4    5    6
          inv. 180 deg rotation - cart. axis [1,0,0]             

   Cartesian axes

     site n.     atom                  positions (alat units)
         1           S   tau(   1) = (   0.0000000   0.5773503   1.4932768  )
         2           Nb  tau(   2) = (   0.0000000   0.0000000   1.0094618  )
         3           S   tau(   3) = (   0.0000000   0.5773503   0.5321904  )
         4           S   tau(   4) = (   0.5000000   0.2886751   2.5511139  )
         5           Nb  tau(   5) = (   0.0000000   0.0000000   3.0283905  )
         6           S   tau(   6) = (   0.5000000   0.2886751   3.5056620  )

   Crystallographic axes

     site n.     atom                  positions (cryst. coord.)
         1           S   tau(   1) = (  0.3333333  0.6666667  0.2449870  )
         2           Nb  tau(   2) = (  0.0000000  0.0000000  0.1656123  )
         3           S   tau(   3) = (  0.3333333  0.6666667  0.0873112  )
         4           S   tau(   4) = (  0.6666667  0.3333333  0.4185358  )
         5           Nb  tau(   5) = (  0.0000000  0.0000000  0.4968378  )
         6           S   tau(   6) = (  0.6666667  0.3333333  0.5751389  )

     number of k points=    33  Methfessel-Paxton smearing, width (Ry)=  0.0200
                       cart. coord. in units 2pi/alat
        k(    1) = (   0.0000000   0.0000000   0.0000000), wk =   0.0069204
        k(    2) = (   0.0000000   0.0679236   0.0000000), wk =   0.0415225
        k(    3) = (   0.0000000   0.1358471   0.0000000), wk =   0.0415225
        k(    4) = (   0.0000000   0.2037707   0.0000000), wk =   0.0415225
        k(    5) = (   0.0000000   0.2716942   0.0000000), wk =   0.0415225
        k(    6) = (   0.0000000   0.3396178   0.0000000), wk =   0.0415225
        k(    7) = (   0.0000000   0.4075414   0.0000000), wk =   0.0415225
        k(    8) = (   0.0000000   0.4754649   0.0000000), wk =   0.0415225
        k(    9) = (   0.0000000   0.5433885   0.0000000), wk =   0.0415225
        k(   10) = (   0.0588235   0.1018853   0.0000000), wk =   0.0415225
        k(   11) = (   0.0588235   0.1698089   0.0000000), wk =   0.0830450
        k(   12) = (   0.0588235   0.2377325   0.0000000), wk =   0.0830450
        k(   13) = (   0.0588235   0.3056560   0.0000000), wk =   0.0830450
        k(   14) = (   0.0588235   0.3735796   0.0000000), wk =   0.0830450
        k(   15) = (   0.0588235   0.4415031   0.0000000), wk =   0.0830450
        k(   16) = (   0.0588235   0.5094267   0.0000000), wk =   0.0830450
        k(   17) = (   0.0588235   0.5773503   0.0000000), wk =   0.0415225
        k(   18) = (   0.1176471   0.2037707   0.0000000), wk =   0.0415225
        k(   19) = (   0.1176471   0.2716942   0.0000000), wk =   0.0830450
        k(   20) = (   0.1176471   0.3396178   0.0000000), wk =   0.0830450
        k(   21) = (   0.1176471   0.4075414   0.0000000), wk =   0.0830450
        k(   22) = (   0.1176471   0.4754649   0.0000000), wk =   0.0830450
        k(   23) = (   0.1176471   0.5433885   0.0000000), wk =   0.0830450
        k(   24) = (   0.1764706   0.3056560   0.0000000), wk =   0.0415225
        k(   25) = (   0.1764706   0.3735796   0.0000000), wk =   0.0830450
        k(   26) = (   0.1764706   0.4415031   0.0000000), wk =   0.0830450
        k(   27) = (   0.1764706   0.5094267   0.0000000), wk =   0.0830450
        k(   28) = (   0.1764706   0.5773503   0.0000000), wk =   0.0415225
        k(   29) = (   0.2352941   0.4075414   0.0000000), wk =   0.0415225
        k(   30) = (   0.2352941   0.4754649   0.0000000), wk =   0.0830450
        k(   31) = (   0.2352941   0.5433885   0.0000000), wk =   0.0830450
        k(   32) = (   0.2941176   0.5094267   0.0000000), wk =   0.0415225
        k(   33) = (   0.2941176   0.5773503   0.0000000), wk =   0.0415225

                       cryst. coord.
        k(    1) = (   0.0000000   0.0000000   0.0000000), wk =   0.0069204
        k(    2) = (   0.0000000   0.0588235   0.0000000), wk =   0.0415225
        k(    3) = (   0.0000000   0.1176471   0.0000000), wk =   0.0415225
        k(    4) = (   0.0000000   0.1764706   0.0000000), wk =   0.0415225
        k(    5) = (   0.0000000   0.2352941   0.0000000), wk =   0.0415225
        k(    6) = (   0.0000000   0.2941176   0.0000000), wk =   0.0415225
        k(    7) = (   0.0000000   0.3529412   0.0000000), wk =   0.0415225
        k(    8) = (   0.0000000   0.4117647   0.0000000), wk =   0.0415225
        k(    9) = (   0.0000000   0.4705882   0.0000000), wk =   0.0415225
        k(   10) = (   0.0588235   0.0588235   0.0000000), wk =   0.0415225
        k(   11) = (   0.0588235   0.1176471   0.0000000), wk =   0.0830450
        k(   12) = (   0.0588235   0.1764706   0.0000000), wk =   0.0830450
        k(   13) = (   0.0588235   0.2352941   0.0000000), wk =   0.0830450
        k(   14) = (   0.0588235   0.2941176   0.0000000), wk =   0.0830450
        k(   15) = (   0.0588235   0.3529412   0.0000000), wk =   0.0830450
        k(   16) = (   0.0588235   0.4117647   0.0000000), wk =   0.0830450
        k(   17) = (   0.0588235   0.4705882   0.0000000), wk =   0.0415225
        k(   18) = (   0.1176471   0.1176471   0.0000000), wk =   0.0415225
        k(   19) = (   0.1176471   0.1764706   0.0000000), wk =   0.0830450
        k(   20) = (   0.1176471   0.2352941   0.0000000), wk =   0.0830450
        k(   21) = (   0.1176471   0.2941176   0.0000000), wk =   0.0830450
        k(   22) = (   0.1176471   0.3529412   0.0000000), wk =   0.0830450
        k(   23) = (   0.1176471   0.4117647   0.0000000), wk =   0.0830450
        k(   24) = (   0.1764706   0.1764706   0.0000000), wk =   0.0415225
        k(   25) = (   0.1764706   0.2352941   0.0000000), wk =   0.0830450
        k(   26) = (   0.1764706   0.2941176   0.0000000), wk =   0.0830450
        k(   27) = (   0.1764706   0.3529412   0.0000000), wk =   0.0830450
        k(   28) = (   0.1764706   0.4117647   0.0000000), wk =   0.0415225
        k(   29) = (   0.2352941   0.2352941   0.0000000), wk =   0.0415225
        k(   30) = (   0.2352941   0.2941176   0.0000000), wk =   0.0830450
        k(   31) = (   0.2352941   0.3529412   0.0000000), wk =   0.0830450
        k(   32) = (   0.2941176   0.2941176   0.0000000), wk =   0.0415225
        k(   33) = (   0.2941176   0.3529412   0.0000000), wk =   0.0415225

     Dense  grid:   170041 G-vectors     FFT dimensions: (  40,  40, 243)

     Smooth grid:    43005 G-vectors     FFT dimensions: (  25,  25, 160)

     Dynamical RAM for                 wfc:       2.46 MB

     Dynamical RAM for     wfc (w. buffer):      83.67 MB

     Dynamical RAM for           str. fact:       2.59 MB

     Dynamical RAM for           local pot:       0.00 MB

     Dynamical RAM for          nlocal pot:       2.79 MB

     Dynamical RAM for                qrad:       3.21 MB

     Dynamical RAM for          rho,v,vnew:       8.36 MB

     Dynamical RAM for               rhoin:       2.79 MB

     Dynamical RAM for            rho*nmix:      20.76 MB

     Dynamical RAM for           G-vectors:       5.03 MB

     Dynamical RAM for          h,s,v(r/c):       0.66 MB

     Dynamical RAM for          <psi|beta>:       0.06 MB

     Dynamical RAM for                 psi:       4.92 MB

     Dynamical RAM for                hpsi:       4.92 MB

     Dynamical RAM for                spsi:       4.92 MB

     Dynamical RAM for      wfcinit/wfcrot:       5.00 MB

     Dynamical RAM for           addusdens:     246.48 MB

     Estimated static dynamical RAM per process >     140.54 MB

     Estimated max dynamical RAM per process >     387.02 MB

     Estimated total dynamical RAM >     774.04 MB

     Initial potential from superposition of free atoms

     starting charge   49.99775, renormalised to   50.00000

     negative rho (up, down):  7.872E-05 0.000E+00
     Starting wfcs are   42 randomized atomic wfcs +   18 random wfcs
     Checking if some PAW data can be deallocated... 

     total cpu time spent up to now is       10.6 secs

     Self-consistent Calculation

     iteration #  1     ecut=    40.00 Ry     beta= 0.70
     Davidson diagonalization with overlap
     ethr =  1.00E-02,  avg # of iterations =  7.7

     Threshold (ethr) on eigenvalues was too large:
     Diagonalizing with lowered threshold

     Davidson diagonalization with overlap
     ethr =  5.35E-04,  avg # of iterations =  2.5

     negative rho (up, down):  1.253E-04 0.000E+00

     total cpu time spent up to now is       94.5 secs

     total energy              =    -907.81148009 Ry
     estimated scf accuracy    <       0.26866785 Ry

     iteration #  2     ecut=    40.00 Ry     beta= 0.70
     Davidson diagonalization with overlap
     ethr =  5.37E-04,  avg # of iterations =  6.0

     negative rho (up, down):  1.426E-04 0.000E+00

     total cpu time spent up to now is      130.6 secs

     total energy              =    -907.49726308 Ry
     estimated scf accuracy    <       2.98634518 Ry

     iteration #  3     ecut=    40.00 Ry     beta= 0.70
     Davidson diagonalization with overlap
     ethr =  5.37E-04,  avg # of iterations =  7.4

     negative rho (up, down):  1.216E-04 0.000E+00

     total cpu time spent up to now is      166.6 secs

     total energy              =    -906.81603712 Ry
     estimated scf accuracy    <      40.51377571 Ry

     iteration #  4     ecut=    40.00 Ry     beta= 0.70
     Davidson diagonalization with overlap
     ethr =  5.37E-04,  avg # of iterations =  7.2

     negative rho (up, down):  1.217E-04 0.000E+00

     total cpu time spent up to now is      202.0 secs

     total energy              =    -907.89521669 Ry
     estimated scf accuracy    <       0.13786386 Ry

     iteration #  5     ecut=    40.00 Ry     beta= 0.70
     Davidson diagonalization with overlap
     ethr =  2.76E-04,  avg # of iterations =  2.2

     negative rho (up, down):  1.241E-04 0.000E+00

     total cpu time spent up to now is      229.3 secs

     total energy              =    -907.90742189 Ry
     estimated scf accuracy    <       0.10846093 Ry

     iteration #  6     ecut=    40.00 Ry     beta= 0.70
     Davidson diagonalization with overlap
     ethr =  2.17E-04,  avg # of iterations =  1.4

     negative rho (up, down):  1.257E-04 0.000E+00

     total cpu time spent up to now is      253.7 secs

     total energy              =    -907.90760122 Ry
     estimated scf accuracy    <       0.05999176 Ry

     iteration #  7     ecut=    40.00 Ry     beta= 0.70
     Davidson diagonalization with overlap
     ethr =  1.20E-04,  avg # of iterations =  1.7

     negative rho (up, down):  1.276E-04 0.000E+00

     total cpu time spent up to now is      278.9 secs

     total energy              =    -907.91060629 Ry
     estimated scf accuracy    <       0.01336227 Ry

     iteration #  8     ecut=    40.00 Ry     beta= 0.70
     Davidson diagonalization with overlap
     ethr =  2.67E-05,  avg # of iterations =  4.8

     negative rho (up, down):  1.292E-04 0.000E+00

     total cpu time spent up to now is      306.6 secs

     total energy              =    -907.91125141 Ry
     estimated scf accuracy    <       0.00150992 Ry

     iteration #  9     ecut=    40.00 Ry     beta= 0.70
     Davidson diagonalization with overlap
     c_bands:  1 eigenvalues not converged
     ethr =  3.02E-06,  avg # of iterations =  8.0

     negative rho (up, down):  1.317E-04 0.000E+00

     total cpu time spent up to now is      337.6 secs

     total energy              =    -907.91126812 Ry
     estimated scf accuracy    <       0.00388270 Ry

     iteration # 10     ecut=    40.00 Ry     beta= 0.70
     Davidson diagonalization with overlap
     ethr =  3.02E-06,  avg # of iterations =  1.0

     negative rho (up, down):  1.317E-04 0.000E+00

     total cpu time spent up to now is      360.9 secs

     total energy              =    -907.91146258 Ry
     estimated scf accuracy    <       0.00181251 Ry

     iteration # 11     ecut=    40.00 Ry     beta= 0.70
     Davidson diagonalization with overlap
     ethr =  3.02E-06,  avg # of iterations =  1.0

     negative rho (up, down):  1.320E-04 0.000E+00

     total cpu time spent up to now is      384.8 secs

     total energy              =    -907.91149711 Ry
     estimated scf accuracy    <       0.00008505 Ry

     iteration # 12     ecut=    40.00 Ry     beta= 0.70
     Davidson diagonalization with overlap
     ethr =  1.70E-07,  avg # of iterations =  1.0

     negative rho (up, down):  1.321E-04 0.000E+00

     total cpu time spent up to now is      408.1 secs

     total energy              =    -907.91149841 Ry
     estimated scf accuracy    <       0.00000076 Ry

     iteration # 13     ecut=    40.00 Ry     beta= 0.70
     Davidson diagonalization with overlap
     ethr =  1.53E-09,  avg # of iterations =  1.0

     negative rho (up, down):  1.321E-04 0.000E+00

     total cpu time spent up to now is      431.4 secs

     total energy              =    -907.91149844 Ry
     estimated scf accuracy    <       0.00000002 Ry

     iteration # 14     ecut=    40.00 Ry     beta= 0.70
     Davidson diagonalization with overlap
     ethr =  3.28E-11,  avg # of iterations =  2.6

     negative rho (up, down):  1.321E-04 0.000E+00

     total cpu time spent up to now is      460.4 secs

     End of self-consistent calculation

          k = 0.0000 0.0000 0.0000 (  5429 PWs)   bands (ev):

   -51.4504 -51.4367 -27.6631 -27.6559 -27.4326 -27.4326 -27.4231 -27.4231
   -10.3511 -10.2864  -9.0610  -8.9610  -2.1130  -1.8088   0.9723   0.9723
     1.0229   1.0229   1.3931   2.0768   2.0768   2.1167   2.1167   2.1291
     3.8434   4.2770   6.3257   6.3257   6.3686   6.3686   6.5028   6.5028
     6.5370   6.5370   8.5508   8.7284   9.0065   9.6094  11.3532  11.5626
    11.6238  11.9812  13.8544  13.8544  13.8797  13.8797  14.0207  15.7614
    15.7996  15.7996  16.0490  16.0490  16.1263  17.1020  18.0536  18.5255
    18.6688  18.6688  18.8018  19.1718

     occupation numbers 
     1.0000   1.0000   1.0000   1.0000   1.0000   1.0000   1.0000   1.0000
     1.0000   1.0000   1.0000   1.0000   1.0000   1.0000   1.0000   1.0000
     1.0000   1.0000   1.0000   1.0000   1.0000   1.0000   1.0000   1.0000
    -0.0024  -0.0000  -0.0000  -0.0000  -0.0000  -0.0000  -0.0000  -0.0000
    -0.0000  -0.0000  -0.0000  -0.0000  -0.0000  -0.0000  -0.0000  -0.0000
    -0.0000  -0.0000  -0.0000  -0.0000  -0.0000  -0.0000  -0.0000  -0.0000
    -0.0000  -0.0000  -0.0000  -0.0000  -0.0000  -0.0000  -0.0000  -0.0000
    -0.0000  -0.0000  -0.0000  -0.0000

          k = 0.0000 0.0679 0.0000 (  5403 PWs)   bands (ev):

   -51.4489 -51.4352 -27.6598 -27.6526 -27.4482 -27.4389 -27.4360 -27.4266
   -10.3032 -10.2388  -9.0452  -8.9469  -2.0556  -1.7517   0.8435   0.8924
     1.0210   1.0710   1.2370   1.7084   1.9935   2.0341   2.1712   2.4160
     3.8233   4.2120   6.2857   6.3132   6.3852   6.4007   6.4408   6.4681
     6.4846   6.4977   8.7354   8.9577   9.1446   9.7013  11.4367  11.7092
    11.8635  12.1085  13.5907  13.7412  13.9981  14.0344  14.1563  15.3376
    15.5970  15.7807  15.8584  16.0551  16.1359  17.1160  17.9603  18.4695
    18.7025  18.9221  19.0930  19.1368

     occupation numbers 
     1.0000   1.0000   1.0000   1.0000   1.0000   1.0000   1.0000   1.0000
     1.0000   1.0000   1.0000   1.0000   1.0000   1.0000   1.0000   1.0000
     1.0000   1.0000   1.0000   1.0000   1.0000   1.0000   1.0000   1.0002
    -0.0032  -0.0000  -0.0000  -0.0000  -0.0000  -0.0000  -0.0000  -0.0000
    -0.0000  -0.0000  -0.0000  -0.0000  -0.0000  -0.0000  -0.0000  -0.0000
    -0.0000  -0.0000  -0.0000  -0.0000  -0.0000  -0.0000  -0.0000  -0.0000
    -0.0000  -0.0000  -0.0000  -0.0000  -0.0000  -0.0000  -0.0000  -0.0000
    -0.0000  -0.0000  -0.0000  -0.0000

          k = 0.0000 0.1358 0.0000 (  5387 PWs)   bands (ev):

   -51.4445 -51.4308 -27.6504 -27.6431 -27.4928 -27.4839 -27.4459 -27.4366
   -10.1639 -10.1004  -8.9992  -8.9058  -1.8945  -1.5924   0.5108   0.5555
     0.9056   1.1608   1.2088   1.2569   1.7752   1.8178   2.2345   2.5591
     3.7351   4.0065   6.0708   6.2339   6.2495   6.3313   6.3486   6.3887
     6.7051   6.7394   9.0566   9.4867   9.6588  10.0274  11.6462  11.9030
    12.4665  12.5837  13.1691  13.4131  14.2805  14.4101  14.4694  14.5817
    14.8809  15.7655  15.8136  16.0114  16.0947  17.1471  17.4333  18.2429
    18.3711  18.5622  18.8757  19.0194

     occupation numbers 
     1.0000   1.0000   1.0000   1.0000   1.0000   1.0000   1.0000   1.0000
     1.0000   1.0000   1.0000   1.0000   1.0000   1.0000   1.0000   1.0000
     1.0000   1.0000   1.0000   1.0000   1.0000   1.0000   1.0000   1.0019
    -0.0098  -0.0001  -0.0000  -0.0000  -0.0000  -0.0000  -0.0000  -0.0000
    -0.0000  -0.0000  -0.0000  -0.0000  -0.0000  -0.0000  -0.0000  -0.0000
    -0.0000  -0.0000  -0.0000  -0.0000  -0.0000  -0.0000  -0.0000  -0.0000
    -0.0000  -0.0000  -0.0000  -0.0000  -0.0000  -0.0000  -0.0000  -0.0000
    -0.0000  -0.0000  -0.0000  -0.0000

          k = 0.0000 0.2038 0.0000 (  5379 PWs)   bands (ev):

   -51.4379 -51.4242 -27.6362 -27.6287 -27.5599 -27.5515 -27.4608 -27.4516
    -9.9457  -9.8841  -8.9271  -8.8416  -1.6700  -1.3768   0.0946   0.1326
     0.5147   0.7833   1.3726   1.4067   1.4874   1.5433   2.1719   2.5225
     3.5229   3.6718   5.8503   6.1667   6.2038   6.2617   6.3024   6.4730
     7.0453   7.0910   9.3901   9.9311  10.3826  10.7436  11.9388  12.0262
    12.7621  12.9503  12.9837  13.1039  14.0632  14.2815  14.7497  15.0212
    15.1131  15.4454  15.7793  15.8304  16.2206  16.8316  17.0519  17.7197
    17.7746  18.2904  18.3107  18.9433

     occupation numbers 
     1.0000   1.0000   1.0000   1.0000   1.0000   1.0000   1.0000   1.0000
     1.0000   1.0000   1.0000   1.0000   1.0000   1.0000   1.0000   1.0000
     1.0000   1.0000   1.0000   1.0000   1.0000   1.0000   1.0000   1.0011
    -0.0346  -0.0184  -0.0000  -0.0000  -0.0000  -0.0000  -0.0000  -0.0000
    -0.0000  -0.0000  -0.0000  -0.0000  -0.0000  -0.0000  -0.0000  -0.0000
    -0.0000  -0.0000  -0.0000  -0.0000  -0.0000  -0.0000  -0.0000  -0.0000
    -0.0000  -0.0000  -0.0000  -0.0000  -0.0000  -0.0000  -0.0000  -0.0000
    -0.0000  -0.0000  -0.0000  -0.0000

          k = 0.0000 0.2717 0.0000 (  5369 PWs)   bands (ev):

   -51.4300 -51.4161 -27.6397 -27.6319 -27.6188 -27.6112 -27.4787 -27.4696
    -9.6695  -9.6109  -8.8360  -8.7608  -1.4812  -1.2280  -0.2565  -0.2243
     0.1058   0.3105   1.1869   1.2244   1.6262   1.6777   2.0103   2.3691
     3.2026   3.2952   5.8204   6.1106   6.1655   6.2067   6.5148   6.7443
     7.3854   7.4464   9.7791  10.2780  10.8314  11.4799  11.9214  12.3938
    12.4418  12.5578  12.8231  13.1363  14.2522  14.6896  15.0040  15.1297
    15.5599  15.6284  15.7745  16.0411  16.4803  16.5375  16.7416  17.1650
    17.4166  17.7339  18.0382  19.0369

     occupation numbers 
     1.0000   1.0000   1.0000   1.0000   1.0000   1.0000   1.0000   1.0000
     1.0000   1.0000   1.0000   1.0000   1.0000   1.0000   1.0000   1.0000
     1.0000   1.0000   1.0000   1.0000   1.0000   1.0000   1.0000   1.0001
     0.5183   0.2446  -0.0000  -0.0000  -0.0000  -0.0000  -0.0000  -0.0000
    -0.0000  -0.0000  -0.0000  -0.0000  -0.0000  -0.0000  -0.0000  -0.0000
    -0.0000  -0.0000  -0.0000  -0.0000  -0.0000  -0.0000  -0.0000  -0.0000
    -0.0000  -0.0000  -0.0000  -0.0000  -0.0000  -0.0000  -0.0000  -0.0000
    -0.0000  -0.0000  -0.0000  -0.0000

          k = 0.0000 0.3396 0.0000 (  5377 PWs)   bands (ev):

   -51.4217 -51.4078 -27.7211 -27.7140 -27.6009 -27.5930 -27.4973 -27.4882
    -9.3644  -9.3108  -8.7362  -8.6728  -1.4959  -1.3385  -0.4359  -0.3419
    -0.2631  -0.1223   0.9150   0.9555   1.8295   1.8786   1.9263   2.1887
     2.9224   3.0055   5.9654   6.0939   6.1404   6.3372   6.8067   7.0616
     7.6698   7.7497  10.1904  10.5789  10.9069  11.3971  11.5835  12.0411
    12.0817  12.7090  13.0968  13.5448  14.2451  14.8700  15.0872  15.2412
    15.5215  15.7335  15.8246  16.4824  16.6190  16.7936  16.9435  17.4237
    17.4758  17.7351  17.9367  18.4402

     occupation numbers 
     1.0000   1.0000   1.0000   1.0000   1.0000   1.0000   1.0000   1.0000
     1.0000   1.0000   1.0000   1.0000   1.0000   1.0000   1.0000   1.0000
     1.0000   1.0000   1.0000   1.0000   1.0000   1.0000   1.0000   1.0000
     1.0297   0.9749  -0.0000  -0.0000  -0.0000  -0.0000  -0.0000  -0.0000
    -0.0000  -0.0000  -0.0000  -0.0000  -0.0000  -0.0000  -0.0000  -0.0000
    -0.0000  -0.0000  -0.0000  -0.0000  -0.0000  -0.0000  -0.0000  -0.0000
    -0.0000  -0.0000  -0.0000  -0.0000  -0.0000  -0.0000  -0.0000  -0.0000
    -0.0000  -0.0000  -0.0000  -0.0000

          k = 0.0000 0.4075 0.0000 (  5383 PWs)   bands (ev):

   -51.4143 -51.4003 -27.7933 -27.7868 -27.5848 -27.5767 -27.5138 -27.5049
    -9.0687  -9.0222  -8.6405  -8.5897  -1.7053  -1.6163  -0.6939  -0.5509
    -0.3557  -0.2869   0.6954   0.7370   1.6846   2.0391   2.0894   2.1368
     2.8225   2.9164   6.1640   6.1978   6.2150   6.5160   7.0728   7.3311
     7.8752   7.9741  10.4446  10.6194  10.8060  11.0125  11.1687  11.7777
    11.9319  12.8295  13.1632  13.9167  14.0213  14.7020  14.8994  15.0232
    15.2769  15.5330  16.4143  16.7505  16.9879  17.1784  17.2556  17.5749
    18.2249  18.2705  18.2880  18.4622

     occupation numbers 
     1.0000   1.0000   1.0000   1.0000   1.0000   1.0000   1.0000   1.0000
     1.0000   1.0000   1.0000   1.0000   1.0000   1.0000   1.0000   1.0000
     1.0000   1.0000   1.0000   1.0000   1.0000   1.0000   1.0000   1.0000
     1.0311   1.0312  -0.0000  -0.0000  -0.0000  -0.0000  -0.0000  -0.0000
    -0.0000  -0.0000  -0.0000  -0.0000  -0.0000  -0.0000  -0.0000  -0.0000
    -0.0000  -0.0000  -0.0000  -0.0000  -0.0000  -0.0000  -0.0000  -0.0000
    -0.0000  -0.0000  -0.0000  -0.0000  -0.0000  -0.0000  -0.0000  -0.0000
    -0.0000  -0.0000  -0.0000  -0.0000

          k = 0.0000 0.4755 0.0000 (  5364 PWs)   bands (ev):

   -51.4087 -51.3947 -27.8470 -27.8410 -27.5726 -27.5643 -27.5262 -27.5174
    -8.8287  -8.7908  -8.5638  -8.5244  -1.9253  -1.8687  -0.9541  -0.8236
    -0.3772  -0.3335   0.5423   0.5845   1.5934   1.9414   2.2326   2.2819
     2.9016   3.0124   6.2847   6.3052   6.5042   6.7015   7.2318   7.5045
     8.0019   8.1162   9.8674  10.2075  10.9554  11.0021  11.2050  11.6673
    12.0623  12.8630  13.3260  13.5733  13.7817  14.2837  14.3242  14.7071
    15.2526  15.5290  16.2670  17.0504  17.2008  17.4995  17.7238  18.1685
    18.2422  18.7038  19.1301  19.2625

     occupation numbers 
     1.0000   1.0000   1.0000   1.0000   1.0000   1.0000   1.0000   1.0000
     1.0000   1.0000   1.0000   1.0000   1.0000   1.0000   1.0000   1.0000
     1.0000   1.0000   1.0000   1.0000   1.0000   1.0000   1.0000   1.0000
     1.0338   0.9668  -0.0000  -0.0000  -0.0000  -0.0000  -0.0000  -0.0000
    -0.0000  -0.0000  -0.0000  -0.0000  -0.0000  -0.0000  -0.0000  -0.0000
    -0.0000  -0.0000  -0.0000  -0.0000  -0.0000  -0.0000  -0.0000  -0.0000
    -0.0000  -0.0000  -0.0000  -0.0000  -0.0000  -0.0000  -0.0000  -0.0000
    -0.0000  -0.0000  -0.0000  -0.0000

          k = 0.0000 0.5434 0.0000 (  5370 PWs)   bands (ev):

   -51.4056 -51.3917 -27.8757 -27.8699 -27.5660 -27.5577 -27.5329 -27.5241
    -8.6920  -8.6613  -8.5204  -8.4884  -2.0544  -2.0129  -1.0967  -0.9718
    -0.4119  -0.3836   0.4639   0.5065   1.5517   1.8948   2.3024   2.3537
     3.0180   3.1303   6.3792   6.3912   6.7495   6.8218   7.2793   7.5816
     8.0609   8.1837   9.3546   9.8619  11.0219  11.0776  11.3996  11.6297
    12.3547  12.6991  13.2273  13.4579  13.7210  13.9884  14.1730  14.3680
    15.0067  15.1655  16.3360  16.8996  17.5771  17.7842  17.8421  18.5604
    18.7452  19.0169  19.6562  19.9147

     occupation numbers 
     1.0000   1.0000   1.0000   1.0000   1.0000   1.0000   1.0000   1.0000
     1.0000   1.0000   1.0000   1.0000   1.0000   1.0000   1.0000   1.0000
     1.0000   1.0000   1.0000   1.0000   1.0000   1.0000   1.0000   1.0000
     0.9599   0.7321  -0.0000  -0.0000  -0.0000  -0.0000  -0.0000  -0.0000
    -0.0000  -0.0000  -0.0000  -0.0000  -0.0000  -0.0000  -0.0000  -0.0000
    -0.0000  -0.0000  -0.0000  -0.0000  -0.0000  -0.0000  -0.0000  -0.0000
    -0.0000  -0.0000  -0.0000  -0.0000  -0.0000  -0.0000  -0.0000  -0.0000
    -0.0000  -0.0000  -0.0000  -0.0000

          k = 0.0588 0.1019 0.0000 (  5383 PWs)   bands (ev):

   -51.4460 -51.4322 -27.6534 -27.6462 -27.4779 -27.4689 -27.4431 -27.4337
   -10.2096 -10.1458  -9.0143  -8.9192  -1.9461  -1.6431   0.6151   0.6611
     1.0098   1.1135   1.1617   1.3955   1.8106   1.8500   2.2591   2.5595
     3.7695   4.0763   6.1536   6.2410   6.2538   6.3190   6.3733   6.4266
     6.6388   6.6733   8.9737   9.3407   9.4854   9.9061  11.5830  11.8632
    12.2842  12.4328  13.2842  13.5381  14.1622  14.2759  14.3962  14.7839
    15.0615  15.6769  15.9066  15.9950  16.0997  17.1625  17.7330  18.3828
    18.3903  18.7856  18.7954  19.0425

     occupation numbers 
     1.0000   1.0000   1.0000   1.0000   1.0000   1.0000   1.0000   1.0000
     1.0000   1.0000   1.0000   1.0000   1.0000   1.0000   1.0000   1.0000
     1.0000   1.0000   1.0000   1.0000   1.0000   1.0000   1.0000   1.0019
    -0.0065  -0.0000  -0.0000  -0.0000  -0.0000  -0.0000  -0.0000  -0.0000
    -0.0000  -0.0000  -0.0000  -0.0000  -0.0000  -0.0000  -0.0000  -0.0000
    -0.0000  -0.0000  -0.0000  -0.0000  -0.0000  -0.0000  -0.0000  -0.0000
    -0.0000  -0.0000  -0.0000  -0.0000  -0.0000  -0.0000  -0.0000  -0.0000
    -0.0000  -0.0000  -0.0000  -0.0000

          k = 0.0588 0.1698 0.0000 (  5356 PWs)   bands (ev):

   -51.4405 -51.4267 -27.6416 -27.6342 -27.5327 -27.5241 -27.4566 -27.4473
   -10.0308  -9.9683  -8.9552  -8.8665  -1.7500  -1.4514   0.2473   0.2881
     0.6856   0.9917   1.2815   1.3231   1.4940   1.5405   2.3004   2.6179
     3.6195   3.8029   5.9092   6.1410   6.2107   6.2487   6.2834   6.3844
     6.9635   7.0104   9.2717   9.8066  10.1563  10.4576  11.8353  11.9931
    12.8294  12.9457  12.9983  13.2108  14.1374  14.2548  14.5552  14.7398
    14.8729  15.5289  15.7227  15.9218  16.0769  17.1893  17.3628  17.7156
    18.0660  18.2970  18.4988  19.2620

     occupation numbers 
     1.0000   1.0000   1.0000   1.0000   1.0000   1.0000   1.0000   1.0000
     1.0000   1.0000   1.0000   1.0000   1.0000   1.0000   1.0000   1.0000
     1.0000   1.0000   1.0000   1.0000   1.0000   1.0000   1.0000   1.0044
    -0.0272  -0.0042  -0.0000  -0.0000  -0.0000  -0.0000  -0.0000  -0.0000
    -0.0000  -0.0000  -0.0000  -0.0000  -0.0000  -0.0000  -0.0000  -0.0000
    -0.0000  -0.0000  -0.0000  -0.0000  -0.0000  -0.0000  -0.0000  -0.0000
    -0.0000  -0.0000  -0.0000  -0.0000  -0.0000  -0.0000  -0.0000  -0.0000
    -0.0000  -0.0000  -0.0000  -0.0000

          k = 0.0588 0.2377 0.0000 (  5370 PWs)   bands (ev):

   -51.4332 -51.4194 -27.6259 -27.6183 -27.6045 -27.5966 -27.4745 -27.4654
    -9.7832  -9.7232  -8.8732  -8.7936  -1.5312  -1.2526  -0.1297  -0.0983
     0.3123   0.5420   1.1537   1.2047   1.4948   1.5463   2.2187   2.5335
     3.3499   3.4441   5.7720   6.0490   6.1698   6.2710   6.3452   6.5321
     7.3245   7.3804   9.6310  10.1715  10.8012  11.2811  12.0183  12.2521
    12.5699  12.8029  12.8859  13.2056  14.2049  14.3173  14.7698  14.9955
    15.1600  15.5572  15.6612  15.9678  16.1337  16.7274  17.0425  17.2728
    17.6182  17.9053  18.3309  19.1992

     occupation numbers 
     1.0000   1.0000   1.0000   1.0000   1.0000   1.0000   1.0000   1.0000
     1.0000   1.0000   1.0000   1.0000   1.0000   1.0000   1.0000   1.0000
     1.0000   1.0000   1.0000   1.0000   1.0000   1.0000   1.0000   1.0013
     0.1191  -0.0051  -0.0000  -0.0000  -0.0000  -0.0000  -0.0000  -0.0000
    -0.0000  -0.0000  -0.0000  -0.0000  -0.0000  -0.0000  -0.0000  -0.0000
    -0.0000  -0.0000  -0.0000  -0.0000  -0.0000  -0.0000  -0.0000  -0.0000
    -0.0000  -0.0000  -0.0000  -0.0000  -0.0000  -0.0000  -0.0000  -0.0000
    -0.0000  -0.0000  -0.0000  -0.0000

          k = 0.0588 0.3057 0.0000 (  5375 PWs)   bands (ev):

   -51.4251 -51.4112 -27.6835 -27.6761 -27.6083 -27.6005 -27.4944 -27.4854
    -9.4917  -9.4358  -8.7770  -8.7085  -1.4313  -1.2266  -0.3693  -0.3141
    -0.0867   0.0778   0.8724   0.9393   1.7050   1.7511   2.0487   2.3602
     3.0515   3.1204   5.7913   6.0240   6.1857   6.3451   6.5938   6.8146
     7.6444   7.7034  10.0469  10.5047  11.0271  11.6602  11.8422  12.2334
    12.3696  12.6141  13.0950  13.1643  14.2934  14.8387  14.8575  15.1326
    15.2285  15.6240  15.7934  16.0483  16.2132  16.6592  16.8755  17.3771
    17.6126  17.7371  18.2056  19.0934

     occupation numbers 
     1.0000   1.0000   1.0000   1.0000   1.0000   1.0000   1.0000   1.0000
     1.0000   1.0000   1.0000   1.0000   1.0000   1.0000   1.0000   1.0000
     1.0000   1.0000   1.0000   1.0000   1.0000   1.0000   1.0000   1.0000
     0.9092   0.7584  -0.0000  -0.0000  -0.0000  -0.0000  -0.0000  -0.0000
    -0.0000  -0.0000  -0.0000  -0.0000  -0.0000  -0.0000  -0.0000  -0.0000
    -0.0000  -0.0000  -0.0000  -0.0000  -0.0000  -0.0000  -0.0000  -0.0000
    -0.0000  -0.0000  -0.0000  -0.0000  -0.0000  -0.0000  -0.0000  -0.0000
    -0.0000  -0.0000  -0.0000  -0.0000

          k = 0.0588 0.3736 0.0000 (  5377 PWs)   bands (ev):

   -51.4172 -51.4033 -27.7587 -27.7519 -27.5912 -27.5832 -27.5135 -27.5046
    -9.1897  -9.1398  -8.6780  -8.6218  -1.5632  -1.4481  -0.5445  -0.4130
    -0.3318  -0.2588   0.6724   0.7387   1.8409   1.8848   1.9114   2.1735
     2.8914   2.9628   5.9317   6.0933   6.3020   6.4723   6.8943   7.1239
     7.8727   7.9265  10.4456  10.7807  10.9921  11.1323  11.4685  11.9672
    12.0540  12.8419  13.1439  13.8293  14.1748  14.5867  14.9445  15.1750
    15.2302  15.5004  15.8483  16.3564  16.5080  17.0605  17.3263  17.6521
    17.9489  18.1110  18.2574  18.3513

     occupation numbers 
     1.0000   1.0000   1.0000   1.0000   1.0000   1.0000   1.0000   1.0000
     1.0000   1.0000   1.0000   1.0000   1.0000   1.0000   1.0000   1.0000
     1.0000   1.0000   1.0000   1.0000   1.0000   1.0000   1.0000   1.0000
     1.0349   1.0119  -0.0000  -0.0000  -0.0000  -0.0000  -0.0000  -0.0000
    -0.0000  -0.0000  -0.0000  -0.0000  -0.0000  -0.0000  -0.0000  -0.0000
    -0.0000  -0.0000  -0.0000  -0.0000  -0.0000  -0.0000  -0.0000  -0.0000
    -0.0000  -0.0000  -0.0000  -0.0000  -0.0000  -0.0000  -0.0000  -0.0000
    -0.0000  -0.0000  -0.0000  -0.0000

          k = 0.0588 0.4415 0.0000 (  5381 PWs)   bands (ev):

   -51.4107 -51.3967 -27.8203 -27.8141 -27.5770 -27.5689 -27.5294 -27.5206
    -8.9194  -8.8775  -8.5904  -8.5463  -1.7860  -1.7169  -0.8571  -0.7346
    -0.3457  -0.2910   0.5435   0.6002   1.6975   1.9823   1.9998   2.0484
     2.9259   3.0133   6.1388   6.2333   6.4808   6.6277   7.1598   7.3869
     7.9749   8.0379  10.2754  10.4994  10.9849  11.1360  11.2271  11.7817
    12.0575  12.9318  13.2472  13.8126  13.9209  14.0503  14.6150  14.8141
    15.3531  15.6160  16.3935  16.7235  16.8311  17.2471  17.5146  17.7939
    18.0383  18.5084  18.7835  18.9805

     occupation numbers 
     1.0000   1.0000   1.0000   1.0000   1.0000   1.0000   1.0000   1.0000
     1.0000   1.0000   1.0000   1.0000   1.0000   1.0000   1.0000   1.0000
     1.0000   1.0000   1.0000   1.0000   1.0000   1.0000   1.0000   1.0000
     1.0287   0.9657  -0.0000  -0.0000  -0.0000  -0.0000  -0.0000  -0.0000
    -0.0000  -0.0000  -0.0000  -0.0000  -0.0000  -0.0000  -0.0000  -0.0000
    -0.0000  -0.0000  -0.0000  -0.0000  -0.0000  -0.0000  -0.0000  -0.0000
    -0.0000  -0.0000  -0.0000  -0.0000  -0.0000  -0.0000  -0.0000  -0.0000
    -0.0000  -0.0000  -0.0000  -0.0000

          k = 0.0588 0.5094 0.0000 (  5382 PWs)   bands (ev):

   -51.4064 -51.3924 -27.8606 -27.8547 -27.5676 -27.5594 -27.5398 -27.5310
    -8.7283  -8.6950  -8.5288  -8.4945  -1.9577  -1.9121  -1.0752  -0.9609
    -0.3795  -0.3488   0.4721   0.5190   1.5983   1.9202   2.0596   2.1118
     3.0553   3.1559   6.3113   6.3536   6.6941   6.7890   7.3252   7.5748
     7.9636   8.0690   9.6091  10.1037  11.1436  11.2368  11.4253  11.7858
    12.2357  12.8643  13.2782  13.5304  13.6087  13.8230  14.2684  14.4870
    15.2617  15.4204  16.2232  16.8719  17.3361  17.5899  17.9143  18.0283
    18.3957  18.9596  19.1397  19.4598

     occupation numbers 
     1.0000   1.0000   1.0000   1.0000   1.0000   1.0000   1.0000   1.0000
     1.0000   1.0000   1.0000   1.0000   1.0000   1.0000   1.0000   1.0000
     1.0000   1.0000   1.0000   1.0000   1.0000   1.0000   1.0000   1.0000
     0.9025   0.6600  -0.0000  -0.0000  -0.0000  -0.0000  -0.0000  -0.0000
    -0.0000  -0.0000  -0.0000  -0.0000  -0.0000  -0.0000  -0.0000  -0.0000
    -0.0000  -0.0000  -0.0000  -0.0000  -0.0000  -0.0000  -0.0000  -0.0000
    -0.0000  -0.0000  -0.0000  -0.0000  -0.0000  -0.0000  -0.0000  -0.0000
    -0.0000  -0.0000  -0.0000  -0.0000

          k = 0.0588 0.5774 0.0000 (  5384 PWs)   bands (ev):

   -51.4049 -51.3909 -27.8746 -27.8688 -27.5643 -27.5560 -27.5434 -27.5347
    -8.6587  -8.6296  -8.5064  -8.4759  -2.0202  -1.9830  -1.1518  -1.0397
    -0.4025  -0.3790   0.4493   0.4923   1.5647   1.8888   2.0876   2.1403
     3.1252   3.2287   6.3709   6.3933   6.8298   6.8568   7.3718   7.6564
     7.9311   8.0697   9.3330   9.8997  11.2454  11.2680  11.6296  11.7264
    12.5233  12.6017  13.0423  13.4555  13.7010  13.8466  14.2110  14.2420
    15.0399  15.2104  16.3778  16.8182  17.6073  17.6462  17.7253  18.4452
    18.7049  19.0044  19.4905  19.6219

     occupation numbers 
     1.0000   1.0000   1.0000   1.0000   1.0000   1.0000   1.0000   1.0000
     1.0000   1.0000   1.0000   1.0000   1.0000   1.0000   1.0000   1.0000
     1.0000   1.0000   1.0000   1.0000   1.0000   1.0000   1.0000   1.0000
     0.7460   0.4373  -0.0000  -0.0000  -0.0000  -0.0000  -0.0000  -0.0000
    -0.0000  -0.0000  -0.0000  -0.0000  -0.0000  -0.0000  -0.0000  -0.0000
    -0.0000  -0.0000  -0.0000  -0.0000  -0.0000  -0.0000  -0.0000  -0.0000
    -0.0000  -0.0000  -0.0000  -0.0000  -0.0000  -0.0000  -0.0000  -0.0000
    -0.0000  -0.0000  -0.0000  -0.0000

          k = 0.1176 0.2038 0.0000 (  5353 PWs)   bands (ev):

   -51.4343 -51.4205 -27.6283 -27.6207 -27.5903 -27.5823 -27.4750 -27.4658
    -9.8223  -9.7619  -8.8859  -8.8048  -1.5508  -1.2645  -0.0732  -0.0401
     0.4333   0.6832   1.0591   1.0898   1.4342   1.4840   2.3566   2.6445
     3.4106   3.4997   5.7531   5.9975   6.1695   6.2529   6.2679   6.4459
     7.3315   7.3926   9.5849  10.1458  10.8240  11.2051  12.0382  12.1925
    12.5697  12.9401  13.1522  13.2591  14.0010  14.2438  14.5115  14.8354
    14.9019  15.4765  15.7482  15.9943  16.0178  16.7412  17.0968  17.5408
    17.6045  18.1671  18.3687  19.4259

     occupation numbers 
     1.0000   1.0000   1.0000   1.0000   1.0000   1.0000   1.0000   1.0000
     1.0000   1.0000   1.0000   1.0000   1.0000   1.0000   1.0000   1.0000
     1.0000   1.0000   1.0000   1.0000   1.0000   1.0000   1.0000   1.0063
     0.0261  -0.0310  -0.0000  -0.0000  -0.0000  -0.0000  -0.0000  -0.0000
    -0.0000  -0.0000  -0.0000  -0.0000  -0.0000  -0.0000  -0.0000  -0.0000
    -0.0000  -0.0000  -0.0000  -0.0000  -0.0000  -0.0000  -0.0000  -0.0000
    -0.0000  -0.0000  -0.0000  -0.0000  -0.0000  -0.0000  -0.0000  -0.0000
    -0.0000  -0.0000  -0.0000  -0.0000

          k = 0.1176 0.2717 0.0000 (  5371 PWs)   bands (ev):

   -51.4269 -51.4130 -27.6581 -27.6506 -27.6122 -27.6044 -27.4981 -27.4891
    -9.5586  -9.5015  -8.7980  -8.7268  -1.3939  -1.1564  -0.3183  -0.2810
     0.1114   0.2638   0.6781   0.7730   1.5574   1.6006   2.2954   2.5543
     3.1572   3.1924   5.6711   5.9227   6.2223   6.3565   6.4064   6.5985
     7.6856   7.7491   9.9790  10.4942  11.2733  11.8776  12.0629  12.4104
    12.5062  12.8193  12.8361  13.1226  14.2621  14.5906  14.6136  14.7572
    14.9056  15.3673  15.4084  16.0325  16.2030  16.5438  16.6554  17.6655
    17.8190  18.0683  18.3137  19.5321

     occupation numbers 
     1.0000   1.0000   1.0000   1.0000   1.0000   1.0000   1.0000   1.0000
     1.0000   1.0000   1.0000   1.0000   1.0000   1.0000   1.0000   1.0000
     1.0000   1.0000   1.0000   1.0000   1.0000   1.0000   1.0000   1.0018
     0.6563   0.5497  -0.0000  -0.0000  -0.0000  -0.0000  -0.0000  -0.0000
    -0.0000  -0.0000  -0.0000  -0.0000  -0.0000  -0.0000  -0.0000  -0.0000
    -0.0000  -0.0000  -0.0000  -0.0000  -0.0000  -0.0000  -0.0000  -0.0000
    -0.0000  -0.0000  -0.0000  -0.0000  -0.0000  -0.0000  -0.0000  -0.0000
    -0.0000  -0.0000  -0.0000  -0.0000

          k = 0.1176 0.3396 0.0000 (  5385 PWs)   bands (ev):

   -51.4192 -51.4053 -27.7270 -27.7201 -27.5955 -27.5875 -27.5224 -27.5136
    -9.2680  -9.2161  -8.7010  -8.6412  -1.4236  -1.2784  -0.4181  -0.3251
    -0.2639  -0.1923   0.4863   0.6151   1.5925   1.6327   2.1297   2.3729
     2.9834   3.0224   5.7267   5.9883   6.3691   6.4900   6.6522   6.8486
     7.9468   7.9990  10.4199  10.8296  11.3081  11.5110  11.9087  12.1853
    12.4275  12.9270  13.1409  13.5210  14.2095  14.5382  14.7103  14.8856
    14.9257  15.1147  15.5011  15.7786  16.1523  17.0604  17.1318  17.6406
    18.0352  18.2781  18.5186  18.7186

     occupation numbers 
     1.0000   1.0000   1.0000   1.0000   1.0000   1.0000   1.0000   1.0000
     1.0000   1.0000   1.0000   1.0000   1.0000   1.0000   1.0000   1.0000
     1.0000   1.0000   1.0000   1.0000   1.0000   1.0000   1.0000   1.0001
     0.9966   0.9540  -0.0000  -0.0000  -0.0000  -0.0000  -0.0000  -0.0000
    -0.0000  -0.0000  -0.0000  -0.0000  -0.0000  -0.0000  -0.0000  -0.0000
    -0.0000  -0.0000  -0.0000  -0.0000  -0.0000  -0.0000  -0.0000  -0.0000
    -0.0000  -0.0000  -0.0000  -0.0000  -0.0000  -0.0000  -0.0000  -0.0000
    -0.0000  -0.0000  -0.0000  -0.0000

          k = 0.1176 0.4075 0.0000 (  5386 PWs)   bands (ev):

   -51.4122 -51.3983 -27.7881 -27.7816 -27.5804 -27.5723 -27.5443 -27.5356
    -8.9876  -8.9428  -8.6075  -8.5597  -1.5970  -1.5107  -0.7611  -0.6705
    -0.2983  -0.2282   0.4235   0.5404   1.5693   1.6140   1.9202   2.1646
     2.9865   3.0426   5.9189   6.1711   6.5419   6.6049   6.9486   7.1407
     8.0472   8.1131  10.6791  10.8757  11.0854  11.3308  11.5162  12.0802
    12.2631  13.0815  13.2651  13.6743  14.0802  14.1279  14.3164  15.0969
    15.2817  15.3740  15.7442  16.2582  16.3667  17.1296  17.4976  17.5657
    17.8692  18.3155  18.4750  18.9006

     occupation numbers 
     1.0000   1.0000   1.0000   1.0000   1.0000   1.0000   1.0000   1.0000
     1.0000   1.0000   1.0000   1.0000   1.0000   1.0000   1.0000   1.0000
     1.0000   1.0000   1.0000   1.0000   1.0000   1.0000   1.0000   1.0000
     0.9939   0.9242  -0.0000  -0.0000  -0.0000  -0.0000  -0.0000  -0.0000
    -0.0000  -0.0000  -0.0000  -0.0000  -0.0000  -0.0000  -0.0000  -0.0000
    -0.0000  -0.0000  -0.0000  -0.0000  -0.0000  -0.0000  -0.0000  -0.0000
    -0.0000  -0.0000  -0.0000  -0.0000  -0.0000  -0.0000  -0.0000  -0.0000
    -0.0000  -0.0000  -0.0000  -0.0000

          k = 0.1176 0.4755 0.0000 (  5380 PWs)   bands (ev):

   -51.4070 -51.3930 -27.8336 -27.8275 -27.5690 -27.5608 -27.5607 -27.5522
    -8.7612  -8.7250  -8.5320  -8.4952  -1.7650  -1.7114  -1.0703  -0.9852
    -0.3111  -0.2728   0.4246   0.5134   1.5661   1.6254   1.7297   1.9867
     3.1163   3.1905   6.1494   6.3085   6.7085   6.7661   7.2454   7.4110
     7.9620   8.1012  10.0227  10.5407  11.3557  11.5027  11.6548  11.9967
    12.3665  13.0517  13.1658  13.4379  13.7966  13.9050  14.0899  14.7969
    15.4742  15.6428  16.1185  16.5209  16.8113  17.0281  17.6688  17.7091
    18.0791  18.2103  18.5542  19.1983

     occupation numbers 
     1.0000   1.0000   1.0000   1.0000   1.0000   1.0000   1.0000   1.0000
     1.0000   1.0000   1.0000   1.0000   1.0000   1.0000   1.0000   1.0000
     1.0000   1.0000   1.0000   1.0000   1.0000   1.0000   1.0000   1.0000
     0.7691   0.5556  -0.0000  -0.0000  -0.0000  -0.0000  -0.0000  -0.0000
    -0.0000  -0.0000  -0.0000  -0.0000  -0.0000  -0.0000  -0.0000  -0.0000
    -0.0000  -0.0000  -0.0000  -0.0000  -0.0000  -0.0000  -0.0000  -0.0000
    -0.0000  -0.0000  -0.0000  -0.0000  -0.0000  -0.0000  -0.0000  -0.0000
    -0.0000  -0.0000  -0.0000  -0.0000

          k = 0.1176 0.5434 0.0000 (  5388 PWs)   bands (ev):

   -51.4042 -51.3902 -27.8578 -27.8519 -27.5697 -27.5629 -27.5611 -27.5545
    -8.6330  -8.6040  -8.4890  -8.4592  -1.8585  -1.8251  -1.2359  -1.1523
    -0.3546  -0.3332   0.4463   0.5074   1.5807   1.6125   1.6506   1.8830
     3.2452   3.3331   6.2654   6.3160   6.8616   6.9647   7.5144   7.6109
     7.7625   8.0063   9.5452  10.1728  11.6088  11.8032  11.8780  12.1471
    12.4511  12.6718  12.8636  13.3677  13.6821  13.8686  14.0646  14.5470
    15.1789  15.5484  16.2447  16.6012  17.1314  17.3512  17.6551  17.8454
    18.2967  18.5019  18.9008  19.3081

     occupation numbers 
     1.0000   1.0000   1.0000   1.0000   1.0000   1.0000   1.0000   1.0000
     1.0000   1.0000   1.0000   1.0000   1.0000   1.0000   1.0000   1.0000
     1.0000   1.0000   1.0000   1.0000   1.0000   1.0000   1.0000   1.0000
     0.3868   0.1537  -0.0000  -0.0000  -0.0000  -0.0000  -0.0000  -0.0000
    -0.0000  -0.0000  -0.0000  -0.0000  -0.0000  -0.0000  -0.0000  -0.0000
    -0.0000  -0.0000  -0.0000  -0.0000  -0.0000  -0.0000  -0.0000  -0.0000
    -0.0000  -0.0000  -0.0000  -0.0000  -0.0000  -0.0000  -0.0000  -0.0000
    -0.0000  -0.0000  -0.0000  -0.0000

          k = 0.1765 0.3057 0.0000 (  5394 PWs)   bands (ev):

   -51.4199 -51.4060 -27.7134 -27.7063 -27.5970 -27.5890 -27.5282 -27.5194
    -9.2951  -9.2425  -8.7087  -8.6477  -1.3640  -1.2027  -0.3824  -0.2938
    -0.1888  -0.1483   0.3709   0.5318   1.4747   1.5134   2.2562   2.4664
     3.0234   3.0387   5.6506   5.9418   6.3823   6.4908   6.5515   6.7327
     7.9878   8.0455  10.4020  10.8511  11.4554  11.7802  12.1073  12.3038
    12.7558  12.9910  13.0513  13.3366  14.1945  14.4343  14.4827  14.6609
    14.7165  15.0943  15.1064  15.8427  15.9906  17.0576  17.0735  17.5966
    18.0739  18.2639  18.6119  19.5495

     occupation numbers 
     1.0000   1.0000   1.0000   1.0000   1.0000   1.0000   1.0000   1.0000
     1.0000   1.0000   1.0000   1.0000   1.0000   1.0000   1.0000   1.0000
     1.0000   1.0000   1.0000   1.0000   1.0000   1.0000   1.0000   1.0004
     0.9526   0.9303  -0.0000  -0.0000  -0.0000  -0.0000  -0.0000  -0.0000
    -0.0000  -0.0000  -0.0000  -0.0000  -0.0000  -0.0000  -0.0000  -0.0000
    -0.0000  -0.0000  -0.0000  -0.0000  -0.0000  -0.0000  -0.0000  -0.0000
    -0.0000  -0.0000  -0.0000  -0.0000  -0.0000  -0.0000  -0.0000  -0.0000
    -0.0000  -0.0000  -0.0000  -0.0000

          k = 0.1765 0.3736 0.0000 (  5372 PWs)   bands (ev):

   -51.4131 -51.3991 -27.7639 -27.7572 -27.5822 -27.5741 -27.5594 -27.5509
    -9.0240  -8.9778  -8.6157  -8.5659  -1.4547  -1.3501  -0.6787  -0.6363
    -0.2623  -0.1662   0.3064   0.4724   1.2721   1.3084   2.0960   2.2789
     3.0153   3.0503   5.7851   6.1180   6.5794   6.6129   6.7626   6.9355
     8.1616   8.2154  10.8035  11.1558  11.2651  11.4450  11.8775  12.3225
    12.5894  13.1931  13.2828  13.6378  13.8890  14.1690  14.4815  14.7518
    14.9441  15.2517  15.4752  15.6509  16.0262  17.2153  17.3291  17.4227
    17.9999  18.1901  18.7169  19.1494

     occupation numbers 
     1.0000   1.0000   1.0000   1.0000   1.0000   1.0000   1.0000   1.0000
     1.0000   1.0000   1.0000   1.0000   1.0000   1.0000   1.0000   1.0000
     1.0000   1.0000   1.0000   1.0000   1.0000   1.0000   1.0000   1.0000
     0.9632   0.9114  -0.0000  -0.0000  -0.0000  -0.0000  -0.0000  -0.0000
    -0.0000  -0.0000  -0.0000  -0.0000  -0.0000  -0.0000  -0.0000  -0.0000
    -0.0000  -0.0000  -0.0000  -0.0000  -0.0000  -0.0000  -0.0000  -0.0000
    -0.0000  -0.0000  -0.0000  -0.0000  -0.0000  -0.0000  -0.0000  -0.0000
    -0.0000  -0.0000  -0.0000  -0.0000

          k = 0.1765 0.4415 0.0000 (  5378 PWs)   bands (ev):

   -51.4074 -51.3934 -27.8042 -27.7979 -27.5866 -27.5782 -27.5699 -27.5617
    -8.7840  -8.7458  -8.5323  -8.4936  -1.5608  -1.4895  -1.0656  -1.0157
    -0.2228  -0.1543   0.3525   0.4949   1.0907   1.1378   1.8747   2.0572
     3.1441   3.1879   5.9964   6.2549   6.7338   6.7723   7.0175   7.1686
     8.1692   8.2763  10.4881  10.9519  11.4511  11.5685  11.7640  12.3845
    12.5459  12.8952  13.3552  13.6170  13.7390  14.2629  14.4047  15.0964
    15.3061  15.3697  15.6865  16.1286  16.3575  16.7859  17.0250  17.5623
    17.6906  18.1430  18.4107  18.6732

     occupation numbers 
     1.0000   1.0000   1.0000   1.0000   1.0000   1.0000   1.0000   1.0000
     1.0000   1.0000   1.0000   1.0000   1.0000   1.0000   1.0000   1.0000
     1.0000   1.0000   1.0000   1.0000   1.0000   1.0000   1.0000   1.0000
     0.6940   0.5637  -0.0000  -0.0000  -0.0000  -0.0000  -0.0000  -0.0000
    -0.0000  -0.0000  -0.0000  -0.0000  -0.0000  -0.0000  -0.0000  -0.0000
    -0.0000  -0.0000  -0.0000  -0.0000  -0.0000  -0.0000  -0.0000  -0.0000
    -0.0000  -0.0000  -0.0000  -0.0000  -0.0000  -0.0000  -0.0000  -0.0000
    -0.0000  -0.0000  -0.0000  -0.0000

          k = 0.1765 0.5094 0.0000 (  5379 PWs)   bands (ev):

   -51.4037 -51.3897 -27.8302 -27.8241 -27.6049 -27.5967 -27.5618 -27.5534
    -8.6165  -8.5866  -8.4729  -8.4431  -1.6215  -1.5796  -1.3195  -1.2654
    -0.2768  -0.2351   0.4390   0.5453   1.0045   1.0803   1.6754   1.8729
     3.3252   3.3837   6.0950   6.1839   6.9029   7.0456   7.2544   7.3540
     8.0646   8.2587   9.9282  10.5660  11.6478  11.9125  12.1247  12.3484
    12.6446  12.7835  13.0760  13.5662  13.8234  14.1174  14.3152  14.8615
    15.3060  15.8152  15.8791  16.2653  16.6152  16.8186  17.1357  17.2663
    17.8032  18.1832  18.5166  18.6213

     occupation numbers 
     1.0000   1.0000   1.0000   1.0000   1.0000   1.0000   1.0000   1.0000
     1.0000   1.0000   1.0000   1.0000   1.0000   1.0000   1.0000   1.0000
     1.0000   1.0000   1.0000   1.0000   1.0000   1.0000   1.0000   1.0000
     0.1714   0.0612  -0.0000  -0.0000  -0.0000  -0.0000  -0.0000  -0.0000
    -0.0000  -0.0000  -0.0000  -0.0000  -0.0000  -0.0000  -0.0000  -0.0000
    -0.0000  -0.0000  -0.0000  -0.0000  -0.0000  -0.0000  -0.0000  -0.0000
    -0.0000  -0.0000  -0.0000  -0.0000  -0.0000  -0.0000  -0.0000  -0.0000
    -0.0000  -0.0000  -0.0000  -0.0000

          k = 0.1765 0.5774 0.0000 (  5378 PWs)   bands (ev):

   -51.4024 -51.3884 -27.8391 -27.8331 -27.6114 -27.6032 -27.5590 -27.5506
    -8.5561  -8.5305  -8.4510  -8.4246  -1.6340  -1.6140  -1.4074  -1.3520
    -0.3197  -0.2837   0.4880   0.5695   0.9852   1.0729   1.5912   1.7985
     3.4156   3.4833   6.0863   6.1170   7.0250   7.1706   7.3720   7.4210
     7.9918   8.2337   9.6952  10.3679  11.7914  12.2247  12.2589  12.3884
    12.5759  12.7993  12.9841  13.2223  13.9243  14.1609  14.4522  14.5565
    15.3374  15.5208  16.2237  16.3242  16.4437  17.0800  17.1308  17.3449
    17.9627  18.1330  18.5180  18.8754

     occupation numbers 
     1.0000   1.0000   1.0000   1.0000   1.0000   1.0000   1.0000   1.0000
     1.0000   1.0000   1.0000   1.0000   1.0000   1.0000   1.0000   1.0000
     1.0000   1.0000   1.0000   1.0000   1.0000   1.0000   1.0000   1.0000
     0.0205  -0.0262  -0.0000  -0.0000  -0.0000  -0.0000  -0.0000  -0.0000
    -0.0000  -0.0000  -0.0000  -0.0000  -0.0000  -0.0000  -0.0000  -0.0000
    -0.0000  -0.0000  -0.0000  -0.0000  -0.0000  -0.0000  -0.0000  -0.0000
    -0.0000  -0.0000  -0.0000  -0.0000  -0.0000  -0.0000  -0.0000  -0.0000
    -0.0000  -0.0000  -0.0000  -0.0000

          k = 0.2353 0.4075 0.0000 (  5362 PWs)   bands (ev):

   -51.4075 -51.3936 -27.7902 -27.7838 -27.5994 -27.5911 -27.5702 -27.5620
    -8.7922  -8.7532  -8.5320  -8.4926  -1.4697  -1.3856  -1.0604  -1.0309
    -0.1677  -0.0701   0.3210   0.4846   0.8747   0.8976   1.9433   2.0856
     3.1519   3.1799   5.9361   6.2295   6.7430   6.7795   6.9204   7.0632
     8.2959   8.3433  10.8076  11.0192  11.4822  11.5018  11.7911  12.5093
    12.7796  12.9199  13.1040  13.7262  14.2150  14.3614  14.6439  15.0439
    15.2109  15.3423  15.4526  15.5791  15.9819  16.8305  17.0274  17.4062
    17.6909  18.0764  18.0961  18.9946

     occupation numbers 
     1.0000   1.0000   1.0000   1.0000   1.0000   1.0000   1.0000   1.0000
     1.0000   1.0000   1.0000   1.0000   1.0000   1.0000   1.0000   1.0000
     1.0000   1.0000   1.0000   1.0000   1.0000   1.0000   1.0000   1.0000
     0.6718   0.5883  -0.0000  -0.0000  -0.0000  -0.0000  -0.0000  -0.0000
    -0.0000  -0.0000  -0.0000  -0.0000  -0.0000  -0.0000  -0.0000  -0.0000
    -0.0000  -0.0000  -0.0000  -0.0000  -0.0000  -0.0000  -0.0000  -0.0000
    -0.0000  -0.0000  -0.0000  -0.0000  -0.0000  -0.0000  -0.0000  -0.0000
    -0.0000  -0.0000  -0.0000  -0.0000

          k = 0.2353 0.4755 0.0000 (  5365 PWs)   bands (ev):

   -51.4034 -51.3894 -27.8050 -27.7987 -27.6344 -27.6263 -27.5612 -27.5529
    -8.6086  -8.5780  -8.4632  -8.4331  -1.4325  -1.3742  -1.3640  -1.3269
    -0.1692  -0.0845   0.4294   0.5401   0.5795   0.6039   1.7329   1.8607
     3.3719   3.3956   5.9705   6.0871   6.8970   7.0322   7.1157   7.2280
     8.3531   8.4344  10.3921  10.7984  11.3838  11.7120  11.9202  12.7303
    12.8218  13.0265  13.2099  14.0731  14.2540  14.5004  14.7321  15.0417
    15.2532  15.4650  15.7305  15.8749  16.2917  16.4074  16.6460  17.0113
    17.4769  17.8282  17.9316  18.6436

     occupation numbers 
     1.0000   1.0000   1.0000   1.0000   1.0000   1.0000   1.0000   1.0000
     1.0000   1.0000   1.0000   1.0000   1.0000   1.0000   1.0000   1.0000
     1.0000   1.0000   1.0000   1.0000   1.0000   1.0000   1.0000   1.0000
     0.0797   0.0445  -0.0000  -0.0000  -0.0000  -0.0000  -0.0000  -0.0000
    -0.0000  -0.0000  -0.0000  -0.0000  -0.0000  -0.0000  -0.0000  -0.0000
    -0.0000  -0.0000  -0.0000  -0.0000  -0.0000  -0.0000  -0.0000  -0.0000
    -0.0000  -0.0000  -0.0000  -0.0000  -0.0000  -0.0000  -0.0000  -0.0000
    -0.0000  -0.0000  -0.0000  -0.0000

          k = 0.2353 0.5434 0.0000 (  5346 PWs)   bands (ev):

   -51.4012 -51.3872 -27.8106 -27.8044 -27.6555 -27.6475 -27.5564 -27.5480
    -8.5068  -8.4833  -8.4232  -8.3987  -1.5392  -1.5019  -1.3543  -1.3177
    -0.2768  -0.2011   0.4054   0.5059   0.5516   0.6615   1.5663   1.6966
     3.5625   3.5997   5.8590   5.8883   7.0441   7.1071   7.3079   7.4269
     8.3579   8.4899  10.0245  10.6309  11.2080  11.8497  12.1964  12.8102
    13.1327  13.2400  13.4221  13.8492  14.2379  14.5096  14.7182  15.0322
    15.2284  15.5826  15.6850  15.9652  16.3873  16.5121  16.5881  16.8607
    17.4812  17.5999  18.0750  18.6810

     occupation numbers 
     1.0000   1.0000   1.0000   1.0000   1.0000   1.0000   1.0000   1.0000
     1.0000   1.0000   1.0000   1.0000   1.0000   1.0000   1.0000   1.0000
     1.0000   1.0000   1.0000   1.0000   1.0000   1.0000   1.0000   1.0000
    -0.0346  -0.0303  -0.0000  -0.0000  -0.0000  -0.0000  -0.0000  -0.0000
    -0.0000  -0.0000  -0.0000  -0.0000  -0.0000  -0.0000  -0.0000  -0.0000
    -0.0000  -0.0000  -0.0000  -0.0000  -0.0000  -0.0000  -0.0000  -0.0000
    -0.0000  -0.0000  -0.0000  -0.0000  -0.0000  -0.0000  -0.0000  -0.0000
    -0.0000  -0.0000  -0.0000  -0.0000

          k = 0.2941 0.5094 0.0000 (  5354 PWs)   bands (ev):

   -51.4007 -51.3867 -27.7928 -27.7867 -27.6787 -27.6708 -27.5555 -27.5471
    -8.4899  -8.4672  -8.4129  -8.3889  -1.5870  -1.5549  -1.2073  -1.1390
    -0.2266  -0.0977   0.0938   0.1843   0.5760   0.7062   1.5600   1.6432
     3.6344   3.6407   5.7548   5.7869   6.9807   7.0462   7.3347   7.4833
     8.5379   8.5798  10.3933  10.5388  11.1085  11.4559  12.1387  13.1462
    13.2123  13.4778  13.6282  14.3838  14.4057  14.7739  14.8081  15.1723
    15.1816  15.3696  15.6133  15.9836  16.0117  16.2797  16.6350  16.6872
    16.7704  17.4173  18.0354  18.5771

     occupation numbers 
     1.0000   1.0000   1.0000   1.0000   1.0000   1.0000   1.0000   1.0000
     1.0000   1.0000   1.0000   1.0000   1.0000   1.0000   1.0000   1.0000
     1.0000   1.0000   1.0000   1.0000   1.0000   1.0000   1.0000   1.0000
    -0.0247  -0.0236  -0.0000  -0.0000  -0.0000  -0.0000  -0.0000  -0.0000
    -0.0000  -0.0000  -0.0000  -0.0000  -0.0000  -0.0000  -0.0000  -0.0000
    -0.0000  -0.0000  -0.0000  -0.0000  -0.0000  -0.0000  -0.0000  -0.0000
    -0.0000  -0.0000  -0.0000  -0.0000  -0.0000  -0.0000  -0.0000  -0.0000
    -0.0000  -0.0000  -0.0000  -0.0000

          k = 0.2941 0.5774 0.0000 (  5374 PWs)   bands (ev):

   -51.3998 -51.3858 -27.7823 -27.7762 -27.7005 -27.6926 -27.5535 -27.5451
    -8.4482  -8.4299  -8.3941  -8.3713  -1.6638  -1.6314  -1.0345  -0.9809
    -0.3703  -0.2974   0.0140   0.0970   0.6589   0.7793   1.4744   1.5319
     3.7629   3.7762   5.6091   5.6323   6.9900   7.0284   7.4971   7.5800
     8.6010   8.6531  10.2733  10.7225  10.7328  11.4178  12.2273  13.3699
    13.5700  13.6370  14.0771  14.0829  14.4824  14.6693  14.8128  15.0515
    15.1895  15.5557  15.6651  15.9191  15.9385  16.3055  16.4174  16.6683
    16.7273  17.1546  18.3691  18.5994

     occupation numbers 
     1.0000   1.0000   1.0000   1.0000   1.0000   1.0000   1.0000   1.0000
     1.0000   1.0000   1.0000   1.0000   1.0000   1.0000   1.0000   1.0000
     1.0000   1.0000   1.0000   1.0000   1.0000   1.0000   1.0000   1.0000
    -0.0071  -0.0060  -0.0000  -0.0000  -0.0000  -0.0000  -0.0000  -0.0000
    -0.0000  -0.0000  -0.0000  -0.0000  -0.0000  -0.0000  -0.0000  -0.0000
    -0.0000  -0.0000  -0.0000  -0.0000  -0.0000  -0.0000  -0.0000  -0.0000
    -0.0000  -0.0000  -0.0000  -0.0000  -0.0000  -0.0000  -0.0000  -0.0000
    -0.0000  -0.0000  -0.0000  -0.0000

     the Fermi energy is     3.2084 ev

!    total energy              =    -907.91149844 Ry

     total all-electron energy =    -18448.320521 Ry
     estimated scf accuracy    <          4.2E-10 Ry
     smearing contrib. (-TS)   =      -0.00191671 Ry
     internal energy E=F+TS    =    -907.90958173 Ry

     The total energy is F=E-TS. E is the sum of the following terms:
     one-electron contribution =   -1048.08180797 Ry
     hartree contribution      =     537.56952534 Ry
     xc contribution           =     -65.32318499 Ry
     ewald contribution        =     256.18108273 Ry
     one-center paw contrib.   =    -588.25519684 Ry
      -> PAW hartree energy AE =     100.87597986 Ry
      -> PAW hartree energy PS =    -100.36185453 Ry
      -> PAW xc energy AE      =    -324.79852077 Ry
      -> PAW xc energy PS      =      30.15761210 Ry
      -> total E_H with PAW    =     538.08365068 Ry
      -> total E_XC with PAW   =    -359.96409365 Ry

     convergence has been achieved in  14 iterations

     Writing output data file ./tmp/NbS2_bi.save/

     init_run     :      9.32s CPU      9.59s WALL (       1 calls)
     electrons    :    442.54s CPU    449.84s WALL (       1 calls)

     Called by init_run:
     wfcinit      :      7.90s CPU      8.02s WALL (       1 calls)
     wfcinit:atom :      0.04s CPU      0.04s WALL (      33 calls)
     wfcinit:wfcr :      7.68s CPU      7.81s WALL (      33 calls)
     potinit      :      0.31s CPU      0.35s WALL (       1 calls)
     hinit0       :      0.62s CPU      0.62s WALL (       1 calls)

     Called by electrons:
     c_bands      :    383.20s CPU    386.64s WALL (      15 calls)
     sum_band     :     51.58s CPU     53.84s WALL (      15 calls)
     v_of_rho     :      0.47s CPU      0.52s WALL (      15 calls)
     v_h          :      0.25s CPU      0.28s WALL (      15 calls)
     v_xc         :      0.22s CPU      0.24s WALL (      15 calls)
     newd         :      6.06s CPU      7.51s WALL (      15 calls)
     PAW_pot      :      0.89s CPU      0.90s WALL (      15 calls)
     mix_rho      :      0.52s CPU      0.54s WALL (      15 calls)

     Called by c_bands:
     init_us_2    :      1.52s CPU      1.55s WALL (    1023 calls)
     cegterg      :    379.00s CPU    382.32s WALL (     495 calls)

     Called by sum_band:
     sum_band:wei :      0.04s CPU      0.04s WALL (      15 calls)
     sum_band:loo :     42.94s CPU     43.43s WALL (      15 calls)
     sum_band:buf :      0.67s CPU      0.67s WALL (     495 calls)
     sum_band:ini :      0.69s CPU      0.69s WALL (     495 calls)
     sum_band:cal :     11.09s CPU     11.12s WALL (     495 calls)
     sum_band:bec :      0.06s CPU      0.06s WALL (     495 calls)
     addusdens    :      8.27s CPU     10.01s WALL (      15 calls)
     addusd:skk   :      0.04s CPU      0.06s WALL (      30 calls)
     addusd:dgemm :      3.38s CPU      4.82s WALL (      30 calls)
     addusd:qvan2 :      4.40s CPU      4.41s WALL (      30 calls)

     Called by *egterg:
     cdiaghg      :     13.23s CPU     13.25s WALL (    2294 calls)
     cegterg:over :     44.59s CPU     44.70s WALL (    1832 calls)
     cegterg:upda :     24.35s CPU     24.40s WALL (    1832 calls)
     cegterg:last :     70.14s CPU     70.29s WALL (     876 calls)
     h_psi        :    186.41s CPU    189.41s WALL (    2360 calls)
     s_psi        :     24.66s CPU     24.71s WALL (    2360 calls)
     g_psi        :      0.48s CPU      0.49s WALL (    1832 calls)

     Called by h_psi:
     h_psi:calbec :     27.60s CPU     27.80s WALL (    2360 calls)
     vloc_psi     :    132.96s CPU    135.69s WALL (    2360 calls)
     add_vuspsi   :     24.51s CPU     24.56s WALL (    2360 calls)

     General routines
     calbec       :     38.67s CPU     38.91s WALL (    2855 calls)
     fft          :      1.18s CPU      1.24s WALL (      89 calls)
     ffts         :      0.05s CPU      0.05s WALL (      30 calls)
     fftw         :    144.79s CPU    147.49s WALL (  171480 calls)
     interpolate  :      0.25s CPU      0.26s WALL (      15 calls)

     Parallel routines
     fft_scatt_xy :     16.27s CPU     16.54s WALL (  171599 calls)
     fft_scatt_yz :     12.55s CPU     12.84s WALL (  171599 calls)

     PAW routines
     PAW_pot      :      0.89s CPU      0.90s WALL (      15 calls)
     PAW_symme    :      0.01s CPU      0.01s WALL (      30 calls)

     PWSCF        :   7m33.16s CPU   7m41.78s WALL


   This run was terminated on:  17:32:18  14Jun2021            

=------------------------------------------------------------------------------=
   JOB DONE.
=------------------------------------------------------------------------------=
