
     Program PWSCF v.6.6 starts on 14Jun2021 at 17:17:13 

     This program is part of the open-source Quantum ESPRESSO suite
     for quantum simulation of materials; please cite
         "P. Giannozzi et al., J. Phys.:Condens. Matter 21 395502 (2009);
         "P. Giannozzi et al., J. Phys.:Condens. Matter 29 465901 (2017);
          URL http://www.quantum-espresso.org", 
     in publications or presentations arising from this work. More details at
     http://www.quantum-espresso.org/quote

     Parallel version (MPI), running on     2 processors

     MPI processes distributed on     1 nodes
     R & G space division:  proc/nbgrp/npool/nimage =       2
     Fft bands division:     nmany     =       1
     Waiting for input...
     Reading input from standard input

     Current dimensions of program PWSCF are:
     Max number of different atomic species (ntypx) = 10
     Max number of k-points (npk) =  40000
     Max angular momentum in pseudopotentials (lmaxx) =  3
     file Nb.pz-spn-kjpaw_psl.1.0.0.UPF: wavefunction(s)  4S 4P 4D renormalized
     file S.pz-n-kjpaw_psl.0.1.UPF: wavefunction(s)  3P renormalized

     Subspace diagonalization in iterative solution of the eigenvalue problem:
     a serial algorithm will be used


     Parallelization info
     --------------------
     sticks:   dense  smooth     PW     G-vecs:    dense   smooth      PW
     Min         534     210     60                85019    21488    3554
     Max         535     211     61                85022    21517    3573
     Sum        1069     421    121               170041    43005    7127



     bravais-lattice index     =            4
     lattice parameter (alat)  =       6.2006  a.u.
     unit-cell volume          =    1258.4114 (a.u.)^3
     number of atoms/cell      =            6
     number of atomic types    =            2
     number of electrons       =        50.00
     number of Kohn-Sham states=           60
     kinetic-energy cutoff     =      40.0000  Ry
     charge density cutoff     =     400.0000  Ry
     convergence threshold     =      1.0E-08
     mixing beta               =       0.7000
     number of iterations used =            8  plain     mixing
     Exchange-correlation= SLA PZ NOGX NOGC
                           (   1   1   0   0   0   0   0)

     celldm(1)=   6.200569  celldm(2)=   0.000000  celldm(3)=   6.095331
     celldm(4)=   0.000000  celldm(5)=   0.000000  celldm(6)=   0.000000

     crystal axes: (cart. coord. in units of alat)
               a(1) = (   1.000000   0.000000   0.000000 )  
               a(2) = (  -0.500000   0.866025   0.000000 )  
               a(3) = (   0.000000   0.000000   6.095331 )  

     reciprocal axes: (cart. coord. in units 2 pi/alat)
               b(1) = (  1.000000  0.577350 -0.000000 )  
               b(2) = (  0.000000  1.154701  0.000000 )  
               b(3) = (  0.000000 -0.000000  0.164060 )  


     PseudoPot. # 1 for Nb read from file:
     ../Nb.pz-spn-kjpaw_psl.1.0.0.UPF
     MD5 check sum: 38c2e04b3cc915696ca8dc9f46a23270
     Pseudo is Projector augmented-wave + core cor, Zval = 13.0
     Generated using "atomic" code by A. Dal Corso v.6.2.2
     Shape of augmentation charge: PSQ
     Using radial grid of 1227 points,  6 beta functions with: 
                l(1) =   0
                l(2) =   0
                l(3) =   1
                l(4) =   1
                l(5) =   2
                l(6) =   2
     Q(r) pseudized with 0 coefficients 


     PseudoPot. # 2 for S  read from file:
     ../S.pz-n-kjpaw_psl.0.1.UPF
     MD5 check sum: c0b1682311cf098e03f7841691d9a679
     Pseudo is Projector augmented-wave + core cor, Zval =  6.0
     Generated using "atomic" code by A. Dal Corso v.5.0.2 svn rev. 9415
     Shape of augmentation charge: PSQ
     Using radial grid of 1151 points,  4 beta functions with: 
                l(1) =   0
                l(2) =   0
                l(3) =   1
                l(4) =   1
     Q(r) pseudized with 0 coefficients 


     atomic species   valence    mass     pseudopotential
        Nb            13.00    92.90600     Nb( 1.00)
        S              6.00    32.06500     S ( 1.00)

      6 Sym. Ops. (no inversion) found


                                    s                        frac. trans.

      isym =  1     identity                                     

 cryst.   s( 1) = (     1          0          0      )
                  (     0          1          0      )
                  (     0          0          1      )

 cart.    s( 1) = (  1.0000000  0.0000000  0.0000000 )
                  (  0.0000000  1.0000000  0.0000000 )
                  (  0.0000000  0.0000000  1.0000000 )


      isym =  2     120 deg rotation - cryst. axis [0,0,1]       

 cryst.   s( 2) = (     0          1          0      )
                  (    -1         -1          0      )
                  (     0          0          1      )

 cart.    s( 2) = ( -0.5000000 -0.8660254  0.0000000 )
                  (  0.8660254 -0.5000000  0.0000000 )
                  (  0.0000000  0.0000000  1.0000000 )


      isym =  3     120 deg rotation - cryst. axis [0,0,-1]      

 cryst.   s( 3) = (    -1         -1          0      )
                  (     1          0          0      )
                  (     0          0          1      )

 cart.    s( 3) = ( -0.5000000  0.8660254  0.0000000 )
                  ( -0.8660254 -0.5000000  0.0000000 )
                  (  0.0000000  0.0000000  1.0000000 )


      isym =  4     inv. 180 deg rotation - cart. axis [1,0,0]   

 cryst.   s( 4) = (    -1          0          0      )
                  (     1          1          0      )
                  (     0          0          1      )

 cart.    s( 4) = ( -1.0000000  0.0000000  0.0000000 )
                  (  0.0000000  1.0000000  0.0000000 )
                  (  0.0000000  0.0000000  1.0000000 )


      isym =  5     inv. 180 deg rotation - cryst. axis [0,1,0]  

 cryst.   s( 5) = (     1          1          0      )
                  (     0         -1          0      )
                  (     0          0          1      )

 cart.    s( 5) = (  0.5000000  0.8660254  0.0000000 )
                  (  0.8660254 -0.5000000  0.0000000 )
                  (  0.0000000  0.0000000  1.0000000 )


      isym =  6     inv. 180 deg rotation - cryst. axis [1,1,0]  

 cryst.   s( 6) = (     0         -1          0      )
                  (    -1          0          0      )
                  (     0          0          1      )

 cart.    s( 6) = (  0.5000000 -0.8660254  0.0000000 )
                  ( -0.8660254 -0.5000000  0.0000000 )
                  (  0.0000000  0.0000000  1.0000000 )


     point group C_3v (3m)  
     there are  3 classes
     the character table:

       E     2C3   3s_v 
A_1    1.00  1.00  1.00
A_2    1.00  1.00 -1.00
E      2.00 -1.00  0.00

     the symmetry operations in each class and the name of the first element:

     E        1
          identity                                               
     2C3      2    3
          120 deg rotation - cryst. axis [0,0,1]                 
     3s_v     4    5    6
          inv. 180 deg rotation - cart. axis [1,0,0]             

   Cartesian axes

     site n.     atom                  positions (alat units)
         1           S   tau(   1) = (   0.0000000   0.5773503   1.4932768  )
         2           Nb  tau(   2) = (   0.0000000   0.0000000   1.0094618  )
         3           S   tau(   3) = (   0.0000000   0.5773503   0.5321904  )
         4           S   tau(   4) = (   0.5000000   0.2886751   2.5511139  )
         5           Nb  tau(   5) = (   0.0000000   0.0000000   3.0283905  )
         6           S   tau(   6) = (   0.5000000   0.2886751   3.5056620  )

   Crystallographic axes

     site n.     atom                  positions (cryst. coord.)
         1           S   tau(   1) = (  0.3333333  0.6666667  0.2449870  )
         2           Nb  tau(   2) = (  0.0000000  0.0000000  0.1656123  )
         3           S   tau(   3) = (  0.3333333  0.6666667  0.0873112  )
         4           S   tau(   4) = (  0.6666667  0.3333333  0.4185358  )
         5           Nb  tau(   5) = (  0.0000000  0.0000000  0.4968378  )
         6           S   tau(   6) = (  0.6666667  0.3333333  0.5751389  )

     number of k points=    30  Methfessel-Paxton smearing, width (Ry)=  0.0200
                       cart. coord. in units 2pi/alat
        k(    1) = (   0.0000000   0.0000000   0.0000000), wk =   0.0078125
        k(    2) = (   0.0000000   0.0721688   0.0000000), wk =   0.0468750
        k(    3) = (   0.0000000   0.1443376   0.0000000), wk =   0.0468750
        k(    4) = (   0.0000000   0.2165064   0.0000000), wk =   0.0468750
        k(    5) = (   0.0000000   0.2886751   0.0000000), wk =   0.0468750
        k(    6) = (   0.0000000   0.3608439   0.0000000), wk =   0.0468750
        k(    7) = (   0.0000000   0.4330127   0.0000000), wk =   0.0468750
        k(    8) = (   0.0000000   0.5051815   0.0000000), wk =   0.0468750
        k(    9) = (   0.0000000  -0.5773503   0.0000000), wk =   0.0234375
        k(   10) = (   0.0625000   0.1082532   0.0000000), wk =   0.0468750
        k(   11) = (   0.0625000   0.1804220   0.0000000), wk =   0.0937500
        k(   12) = (   0.0625000   0.2525907   0.0000000), wk =   0.0937500
        k(   13) = (   0.0625000   0.3247595   0.0000000), wk =   0.0937500
        k(   14) = (   0.0625000   0.3969283   0.0000000), wk =   0.0937500
        k(   15) = (   0.0625000   0.4690971   0.0000000), wk =   0.0937500
        k(   16) = (   0.0625000   0.5412659   0.0000000), wk =   0.0937500
        k(   17) = (   0.1250000   0.2165064   0.0000000), wk =   0.0468750
        k(   18) = (   0.1250000   0.2886751   0.0000000), wk =   0.0937500
        k(   19) = (   0.1250000   0.3608439   0.0000000), wk =   0.0937500
        k(   20) = (   0.1250000   0.4330127   0.0000000), wk =   0.0937500
        k(   21) = (   0.1250000   0.5051815   0.0000000), wk =   0.0937500
        k(   22) = (   0.1250000   0.5773503   0.0000000), wk =   0.0468750
        k(   23) = (   0.1875000   0.3247595   0.0000000), wk =   0.0468750
        k(   24) = (   0.1875000   0.3969283   0.0000000), wk =   0.0937500
        k(   25) = (   0.1875000   0.4690971   0.0000000), wk =   0.0937500
        k(   26) = (   0.1875000   0.5412659   0.0000000), wk =   0.0937500
        k(   27) = (   0.2500000   0.4330127   0.0000000), wk =   0.0468750
        k(   28) = (   0.2500000   0.5051815   0.0000000), wk =   0.0937500
        k(   29) = (   0.2500000   0.5773503   0.0000000), wk =   0.0468750
        k(   30) = (   0.3125000   0.5412659   0.0000000), wk =   0.0468750

                       cryst. coord.
        k(    1) = (   0.0000000   0.0000000   0.0000000), wk =   0.0078125
        k(    2) = (   0.0000000   0.0625000   0.0000000), wk =   0.0468750
        k(    3) = (   0.0000000   0.1250000   0.0000000), wk =   0.0468750
        k(    4) = (   0.0000000   0.1875000   0.0000000), wk =   0.0468750
        k(    5) = (   0.0000000   0.2500000   0.0000000), wk =   0.0468750
        k(    6) = (   0.0000000   0.3125000   0.0000000), wk =   0.0468750
        k(    7) = (   0.0000000   0.3750000   0.0000000), wk =   0.0468750
        k(    8) = (   0.0000000   0.4375000   0.0000000), wk =   0.0468750
        k(    9) = (   0.0000000  -0.5000000   0.0000000), wk =   0.0234375
        k(   10) = (   0.0625000   0.0625000   0.0000000), wk =   0.0468750
        k(   11) = (   0.0625000   0.1250000   0.0000000), wk =   0.0937500
        k(   12) = (   0.0625000   0.1875000   0.0000000), wk =   0.0937500
        k(   13) = (   0.0625000   0.2500000   0.0000000), wk =   0.0937500
        k(   14) = (   0.0625000   0.3125000   0.0000000), wk =   0.0937500
        k(   15) = (   0.0625000   0.3750000   0.0000000), wk =   0.0937500
        k(   16) = (   0.0625000   0.4375000   0.0000000), wk =   0.0937500
        k(   17) = (   0.1250000   0.1250000   0.0000000), wk =   0.0468750
        k(   18) = (   0.1250000   0.1875000   0.0000000), wk =   0.0937500
        k(   19) = (   0.1250000   0.2500000   0.0000000), wk =   0.0937500
        k(   20) = (   0.1250000   0.3125000   0.0000000), wk =   0.0937500
        k(   21) = (   0.1250000   0.3750000   0.0000000), wk =   0.0937500
        k(   22) = (   0.1250000   0.4375000   0.0000000), wk =   0.0468750
        k(   23) = (   0.1875000   0.1875000   0.0000000), wk =   0.0468750
        k(   24) = (   0.1875000   0.2500000   0.0000000), wk =   0.0937500
        k(   25) = (   0.1875000   0.3125000   0.0000000), wk =   0.0937500
        k(   26) = (   0.1875000   0.3750000   0.0000000), wk =   0.0937500
        k(   27) = (   0.2500000   0.2500000   0.0000000), wk =   0.0468750
        k(   28) = (   0.2500000   0.3125000   0.0000000), wk =   0.0937500
        k(   29) = (   0.2500000   0.3750000   0.0000000), wk =   0.0468750
        k(   30) = (   0.3125000   0.3125000   0.0000000), wk =   0.0468750

     Dense  grid:   170041 G-vectors     FFT dimensions: (  40,  40, 243)

     Smooth grid:    43005 G-vectors     FFT dimensions: (  25,  25, 160)

     Dynamical RAM for                 wfc:       2.46 MB

     Dynamical RAM for     wfc (w. buffer):      76.29 MB

     Dynamical RAM for           str. fact:       2.59 MB

     Dynamical RAM for           local pot:       0.00 MB

     Dynamical RAM for          nlocal pot:       2.79 MB

     Dynamical RAM for                qrad:       3.21 MB

     Dynamical RAM for          rho,v,vnew:       8.36 MB

     Dynamical RAM for               rhoin:       2.79 MB

     Dynamical RAM for            rho*nmix:      20.76 MB

     Dynamical RAM for           G-vectors:       5.03 MB

     Dynamical RAM for          h,s,v(r/c):       0.66 MB

     Dynamical RAM for          <psi|beta>:       0.06 MB

     Dynamical RAM for                 psi:       4.92 MB

     Dynamical RAM for                hpsi:       4.92 MB

     Dynamical RAM for                spsi:       4.92 MB

     Dynamical RAM for      wfcinit/wfcrot:       5.00 MB

     Dynamical RAM for           addusdens:     246.48 MB

     Estimated static dynamical RAM per process >     133.15 MB

     Estimated max dynamical RAM per process >     379.64 MB

     Estimated total dynamical RAM >     759.28 MB

     Initial potential from superposition of free atoms

     starting charge   49.99775, renormalised to   50.00000

     negative rho (up, down):  7.872E-05 0.000E+00
     Starting wfcs are   42 randomized atomic wfcs +   18 random wfcs
     Checking if some PAW data can be deallocated... 

     total cpu time spent up to now is       10.0 secs

     Self-consistent Calculation

     iteration #  1     ecut=    40.00 Ry     beta= 0.70
     Davidson diagonalization with overlap
     ethr =  1.00E-02,  avg # of iterations =  7.6

     Threshold (ethr) on eigenvalues was too large:
     Diagonalizing with lowered threshold

     Davidson diagonalization with overlap
     ethr =  5.35E-04,  avg # of iterations =  2.6

     negative rho (up, down):  1.254E-04 0.000E+00

     total cpu time spent up to now is       90.4 secs

     total energy              =    -907.81145222 Ry
     estimated scf accuracy    <       0.26870632 Ry

     iteration #  2     ecut=    40.00 Ry     beta= 0.70
     Davidson diagonalization with overlap
     ethr =  5.37E-04,  avg # of iterations =  6.6

     negative rho (up, down):  1.426E-04 0.000E+00

     total cpu time spent up to now is      127.1 secs

     total energy              =    -907.49703655 Ry
     estimated scf accuracy    <       2.98649334 Ry

     iteration #  3     ecut=    40.00 Ry     beta= 0.70
     Davidson diagonalization with overlap
     ethr =  5.37E-04,  avg # of iterations =  7.6

     negative rho (up, down):  1.216E-04 0.000E+00

     total cpu time spent up to now is      162.1 secs

     total energy              =    -906.81346449 Ry
     estimated scf accuracy    <      40.64223175 Ry

     iteration #  4     ecut=    40.00 Ry     beta= 0.70
     Davidson diagonalization with overlap
     ethr =  5.37E-04,  avg # of iterations =  6.9

     negative rho (up, down):  1.217E-04 0.000E+00

     total cpu time spent up to now is      195.7 secs

     total energy              =    -907.89515240 Ry
     estimated scf accuracy    <       0.13835579 Ry

     iteration #  5     ecut=    40.00 Ry     beta= 0.70
     Davidson diagonalization with overlap
     ethr =  2.77E-04,  avg # of iterations =  2.1

     negative rho (up, down):  1.241E-04 0.000E+00

     total cpu time spent up to now is      221.5 secs

     total energy              =    -907.90740227 Ry
     estimated scf accuracy    <       0.10869971 Ry

     iteration #  6     ecut=    40.00 Ry     beta= 0.70
     Davidson diagonalization with overlap
     ethr =  2.17E-04,  avg # of iterations =  1.5

     negative rho (up, down):  1.257E-04 0.000E+00

     total cpu time spent up to now is      244.6 secs

     total energy              =    -907.90756947 Ry
     estimated scf accuracy    <       0.06035862 Ry

     iteration #  7     ecut=    40.00 Ry     beta= 0.70
     Davidson diagonalization with overlap
     ethr =  1.21E-04,  avg # of iterations =  1.7

     negative rho (up, down):  1.276E-04 0.000E+00

     total cpu time spent up to now is      269.9 secs

     total energy              =    -907.91060573 Ry
     estimated scf accuracy    <       0.01338263 Ry

     iteration #  8     ecut=    40.00 Ry     beta= 0.70
     Davidson diagonalization with overlap
     ethr =  2.68E-05,  avg # of iterations =  5.0

     negative rho (up, down):  1.292E-04 0.000E+00

     total cpu time spent up to now is      295.8 secs

     total energy              =    -907.91124643 Ry
     estimated scf accuracy    <       0.00151115 Ry

     iteration #  9     ecut=    40.00 Ry     beta= 0.70
     Davidson diagonalization with overlap
     ethr =  3.02E-06,  avg # of iterations =  7.2

     negative rho (up, down):  1.316E-04 0.000E+00

     total cpu time spent up to now is      324.3 secs

     total energy              =    -907.91126400 Ry
     estimated scf accuracy    <       0.00390893 Ry

     iteration # 10     ecut=    40.00 Ry     beta= 0.70
     Davidson diagonalization with overlap
     ethr =  3.02E-06,  avg # of iterations =  1.0

     negative rho (up, down):  1.317E-04 0.000E+00

     total cpu time spent up to now is      349.3 secs

     total energy              =    -907.91145903 Ry
     estimated scf accuracy    <       0.00180350 Ry

     iteration # 11     ecut=    40.00 Ry     beta= 0.70
     Davidson diagonalization with overlap
     ethr =  3.02E-06,  avg # of iterations =  1.0

     negative rho (up, down):  1.320E-04 0.000E+00

     total cpu time spent up to now is      371.0 secs

     total energy              =    -907.91149340 Ry
     estimated scf accuracy    <       0.00008530 Ry

     iteration # 12     ecut=    40.00 Ry     beta= 0.70
     Davidson diagonalization with overlap
     ethr =  1.71E-07,  avg # of iterations =  1.0

     negative rho (up, down):  1.321E-04 0.000E+00

     total cpu time spent up to now is      393.1 secs

     total energy              =    -907.91149470 Ry
     estimated scf accuracy    <       0.00000078 Ry

     iteration # 13     ecut=    40.00 Ry     beta= 0.70
     Davidson diagonalization with overlap
     ethr =  1.56E-09,  avg # of iterations =  1.0

     negative rho (up, down):  1.321E-04 0.000E+00

     total cpu time spent up to now is      414.6 secs

     total energy              =    -907.91149473 Ry
     estimated scf accuracy    <       0.00000002 Ry

     iteration # 14     ecut=    40.00 Ry     beta= 0.70
     Davidson diagonalization with overlap
     ethr =  3.27E-11,  avg # of iterations =  2.7

     negative rho (up, down):  1.321E-04 0.000E+00

     total cpu time spent up to now is      441.3 secs

     End of self-consistent calculation

          k = 0.0000 0.0000 0.0000 (  5429 PWs)   bands (ev):

   -51.4504 -51.4367 -27.6631 -27.6560 -27.4325 -27.4325 -27.4231 -27.4231
   -10.3511 -10.2864  -9.0611  -8.9610  -2.1130  -1.8088   0.9723   0.9723
     1.0229   1.0229   1.3931   2.0768   2.0768   2.1167   2.1167   2.1291
     3.8433   4.2769   6.3256   6.3256   6.3686   6.3686   6.5028   6.5028
     6.5370   6.5370   8.5508   8.7284   9.0065   9.6094  11.3532  11.5626
    11.6238  11.9812  13.8543  13.8543  13.8796  13.8796  14.0207  15.7614
    15.7996  15.7996  16.0490  16.0490  16.1263  17.1020  18.0536  18.5255
    18.6687  18.6688  18.8018  19.1718

     occupation numbers 
     1.0000   1.0000   1.0000   1.0000   1.0000   1.0000   1.0000   1.0000
     1.0000   1.0000   1.0000   1.0000   1.0000   1.0000   1.0000   1.0000
     1.0000   1.0000   1.0000   1.0000   1.0000   1.0000   1.0000   1.0000
    -0.0024  -0.0000  -0.0000  -0.0000  -0.0000  -0.0000  -0.0000  -0.0000
    -0.0000  -0.0000  -0.0000  -0.0000  -0.0000  -0.0000  -0.0000  -0.0000
    -0.0000  -0.0000  -0.0000  -0.0000  -0.0000  -0.0000  -0.0000  -0.0000
    -0.0000  -0.0000  -0.0000  -0.0000  -0.0000  -0.0000  -0.0000  -0.0000
    -0.0000  -0.0000  -0.0000  -0.0000

          k = 0.0000 0.0722 0.0000 (  5399 PWs)   bands (ev):

   -51.4487 -51.4350 -27.6594 -27.6522 -27.4502 -27.4409 -27.4364 -27.4270
   -10.2971 -10.2327  -9.0432  -8.9451  -2.0484  -1.7445   0.8277   0.8764
     1.0272   1.0772   1.2195   1.6813   1.9832   2.0239   2.1775   2.4302
     3.8203   4.2034   6.2801   6.3078   6.3713   6.4044   6.4318   6.4786
     6.4863   6.4964   8.7552   8.9854   9.1644   9.7134  11.4468  11.7237
    11.8929  12.1274  13.5659  13.7247  14.0164  14.0540  14.1668  15.2901
    15.5550  15.7788  15.8606  16.0561  16.1334  17.1180  17.9402  18.4567
    18.7004  18.9161  19.0824  19.1372

     occupation numbers 
     1.0000   1.0000   1.0000   1.0000   1.0000   1.0000   1.0000   1.0000
     1.0000   1.0000   1.0000   1.0000   1.0000   1.0000   1.0000   1.0000
     1.0000   1.0000   1.0000   1.0000   1.0000   1.0000   1.0000   1.0002
    -0.0033  -0.0000  -0.0000  -0.0000  -0.0000  -0.0000  -0.0000  -0.0000
    -0.0000  -0.0000  -0.0000  -0.0000  -0.0000  -0.0000  -0.0000  -0.0000
    -0.0000  -0.0000  -0.0000  -0.0000  -0.0000  -0.0000  -0.0000  -0.0000
    -0.0000  -0.0000  -0.0000  -0.0000  -0.0000  -0.0000  -0.0000  -0.0000
    -0.0000  -0.0000  -0.0000  -0.0000

          k = 0.0000 0.1443 0.0000 (  5383 PWs)   bands (ev):

   -51.4438 -51.4301 -27.6489 -27.6416 -27.5001 -27.4913 -27.4475 -27.4382
   -10.1406 -10.0773  -8.9915  -8.8989  -1.8687  -1.5670   0.4605   0.5046
     0.8588   1.1839   1.1985   1.2314   1.7416   1.7847   2.2341   2.5638
     3.7162   3.9706   6.0360   6.2224   6.2461   6.3155   6.3528   6.3729
     6.7449   6.7805   9.0961   9.5527   9.7469  10.0951  11.6787  11.9206
    12.5527  12.6562  13.1181  13.3653  14.2675  14.4777  14.5137  14.5404
    14.8111  15.7678  15.7841  15.9862  16.1045  17.1442  17.3564  18.1913
    18.2967  18.5189  18.8187  19.0203

     occupation numbers 
     1.0000   1.0000   1.0000   1.0000   1.0000   1.0000   1.0000   1.0000
     1.0000   1.0000   1.0000   1.0000   1.0000   1.0000   1.0000   1.0000
     1.0000   1.0000   1.0000   1.0000   1.0000   1.0000   1.0000   1.0020
    -0.0120  -0.0003  -0.0000  -0.0000  -0.0000  -0.0000  -0.0000  -0.0000
    -0.0000  -0.0000  -0.0000  -0.0000  -0.0000  -0.0000  -0.0000  -0.0000
    -0.0000  -0.0000  -0.0000  -0.0000  -0.0000  -0.0000  -0.0000  -0.0000
    -0.0000  -0.0000  -0.0000  -0.0000  -0.0000  -0.0000  -0.0000  -0.0000
    -0.0000  -0.0000  -0.0000  -0.0000

          k = 0.0000 0.2165 0.0000 (  5371 PWs)   bands (ev):

   -51.4365 -51.4227 -27.6331 -27.6256 -27.5741 -27.5659 -27.4640 -27.4548
    -9.8976  -9.8364  -8.9112  -8.8274  -1.6274  -1.3379   0.0189   0.0551
     0.4384   0.6938   1.4146   1.4255   1.4341   1.5130   2.1468   2.4997
     3.4681   3.6006   5.8289   6.1656   6.1822   6.2399   6.3317   6.5155
     7.1113   7.1594   9.4588   9.9996  10.5014  10.9017  11.9790  12.0711
    12.7068  12.9061  12.9201  13.1447  14.0839  14.3068  14.7919  15.1469
    15.2470  15.3615  15.7304  15.8562  16.2580  16.7480  16.9980  17.5949
    17.6914  18.1917  18.2463  18.9360

     occupation numbers 
     1.0000   1.0000   1.0000   1.0000   1.0000   1.0000   1.0000   1.0000
     1.0000   1.0000   1.0000   1.0000   1.0000   1.0000   1.0000   1.0000
     1.0000   1.0000   1.0000   1.0000   1.0000   1.0000   1.0000   1.0007
    -0.0197  -0.0302  -0.0000  -0.0000  -0.0000  -0.0000  -0.0000  -0.0000
    -0.0000  -0.0000  -0.0000  -0.0000  -0.0000  -0.0000  -0.0000  -0.0000
    -0.0000  -0.0000  -0.0000  -0.0000  -0.0000  -0.0000  -0.0000  -0.0000
    -0.0000  -0.0000  -0.0000  -0.0000  -0.0000  -0.0000  -0.0000  -0.0000
    -0.0000  -0.0000  -0.0000  -0.0000

          k = 0.0000 0.2887 0.0000 (  5369 PWs)   bands (ev):

   -51.4279 -51.4141 -27.6602 -27.6527 -27.6144 -27.6067 -27.4834 -27.4743
    -9.5946  -9.5371  -8.8114  -8.7390  -1.4600  -1.2274  -0.3174  -0.2775
     0.0052   0.1959   1.1151   1.1538   1.6911   1.7412   1.9640   2.3235
     3.1215   3.2095   5.8429   6.0982   6.1515   6.2326   6.5844   6.8234
     7.4631   7.5287   9.8830  10.3586  10.8730  11.5682  11.8468  12.3054
    12.4097  12.5208  12.9546  13.1255  14.2722  14.8094  14.9668  15.2103
    15.5401  15.6998  15.8679  16.1388  16.5351  16.5726  16.6869  17.1236
    17.3802  17.6500  17.9830  19.0788

     occupation numbers 
     1.0000   1.0000   1.0000   1.0000   1.0000   1.0000   1.0000   1.0000
     1.0000   1.0000   1.0000   1.0000   1.0000   1.0000   1.0000   1.0000
     1.0000   1.0000   1.0000   1.0000   1.0000   1.0000   1.0000   1.0000
     0.7558   0.4971  -0.0000  -0.0000  -0.0000  -0.0000  -0.0000  -0.0000
    -0.0000  -0.0000  -0.0000  -0.0000  -0.0000  -0.0000  -0.0000  -0.0000
    -0.0000  -0.0000  -0.0000  -0.0000  -0.0000  -0.0000  -0.0000  -0.0000
    -0.0000  -0.0000  -0.0000  -0.0000  -0.0000  -0.0000  -0.0000  -0.0000
    -0.0000  -0.0000  -0.0000  -0.0000

          k = 0.0000 0.3608 0.0000 (  5381 PWs)   bands (ev):

   -51.4192 -51.4054 -27.7450 -27.7382 -27.5956 -27.5877 -27.5027 -27.4937
    -9.2690  -9.2173  -8.7051  -8.6457  -1.5497  -1.4192  -0.4939  -0.3694
    -0.3231  -0.2238   0.8399   0.8809   1.7788   1.9506   1.9979   2.1370
     2.8686   2.9529   6.0354   6.1072   6.1501   6.3897   6.8974   7.1544
     7.7428   7.8288  10.3034  10.6566  10.9034  11.2045  11.4543  11.9527
    11.9966  12.7595  13.1118  13.7429  14.1958  14.8583  15.1336  15.2131
    15.3422  15.6842  15.9067  16.6331  16.6827  16.9242  17.1305  17.5522
    17.6719  17.9146  17.9879  18.1478

     occupation numbers 
     1.0000   1.0000   1.0000   1.0000   1.0000   1.0000   1.0000   1.0000
     1.0000   1.0000   1.0000   1.0000   1.0000   1.0000   1.0000   1.0000
     1.0000   1.0000   1.0000   1.0000   1.0000   1.0000   1.0000   1.0000
     1.0354   1.0176  -0.0000  -0.0000  -0.0000  -0.0000  -0.0000  -0.0000
    -0.0000  -0.0000  -0.0000  -0.0000  -0.0000  -0.0000  -0.0000  -0.0000
    -0.0000  -0.0000  -0.0000  -0.0000  -0.0000  -0.0000  -0.0000  -0.0000
    -0.0000  -0.0000  -0.0000  -0.0000  -0.0000  -0.0000  -0.0000  -0.0000
    -0.0000  -0.0000  -0.0000  -0.0000

          k = 0.0000 0.4330 0.0000 (  5381 PWs)   bands (ev):

   -51.4119 -51.3980 -27.8160 -27.8097 -27.5796 -27.5715 -27.5190 -27.5102
    -8.9695  -8.9262  -8.6087  -8.5624  -1.7940  -1.7199  -0.8023  -0.6645
    -0.3604  -0.3003   0.6296   0.6715   1.6440   1.9962   2.1517   2.1997
     2.8365   2.9377   6.2069   6.2356   6.3222   6.5874   7.1473   7.4081
     7.9314   8.0367  10.3263  10.4216  10.8636  11.0238  11.1113  11.7106
    11.9549  12.8575  13.2061  13.8217  13.9464  14.5179  14.6650  15.0474
    15.1036  15.6529  16.5325  16.7520  17.1496  17.1868  17.3692  17.8279
    18.1786  18.4749  18.6239  18.7275

     occupation numbers 
     1.0000   1.0000   1.0000   1.0000   1.0000   1.0000   1.0000   1.0000
     1.0000   1.0000   1.0000   1.0000   1.0000   1.0000   1.0000   1.0000
     1.0000   1.0000   1.0000   1.0000   1.0000   1.0000   1.0000   1.0000
     1.0329   1.0246  -0.0000  -0.0000  -0.0000  -0.0000  -0.0000  -0.0000
    -0.0000  -0.0000  -0.0000  -0.0000  -0.0000  -0.0000  -0.0000  -0.0000
    -0.0000  -0.0000  -0.0000  -0.0000  -0.0000  -0.0000  -0.0000  -0.0000
    -0.0000  -0.0000  -0.0000  -0.0000  -0.0000  -0.0000  -0.0000  -0.0000
    -0.0000  -0.0000  -0.0000  -0.0000

          k = 0.0000 0.5052 0.0000 (  5370 PWs)   bands (ev):

   -51.4070 -51.3930 -27.8629 -27.8570 -27.5689 -27.5607 -27.5299 -27.5211
    -8.7536  -8.7194  -8.5400  -8.5045  -1.9962  -1.9480  -1.0331  -0.9058
    -0.3938  -0.3590   0.4985   0.5409   1.5696   1.9150   2.2720   2.3223
     2.9588   3.0721   6.3343   6.3502   6.6243   6.7688   7.2632   7.5491
     8.0354   8.1543   9.5952  10.0311  10.9873  11.0457  11.2785  11.6658
    12.1742  12.8175  13.3875  13.4775  13.6304  14.1403  14.2268  14.5216
    15.2545  15.2845  16.2422  16.9985  17.3993  17.6823  17.8458  18.2989
    18.5011  18.8494  19.4143  19.6355

     occupation numbers 
     1.0000   1.0000   1.0000   1.0000   1.0000   1.0000   1.0000   1.0000
     1.0000   1.0000   1.0000   1.0000   1.0000   1.0000   1.0000   1.0000
     1.0000   1.0000   1.0000   1.0000   1.0000   1.0000   1.0000   1.0000
     1.0143   0.8709  -0.0000  -0.0000  -0.0000  -0.0000  -0.0000  -0.0000
    -0.0000  -0.0000  -0.0000  -0.0000  -0.0000  -0.0000  -0.0000  -0.0000
    -0.0000  -0.0000  -0.0000  -0.0000  -0.0000  -0.0000  -0.0000  -0.0000
    -0.0000  -0.0000  -0.0000  -0.0000  -0.0000  -0.0000  -0.0000  -0.0000
    -0.0000  -0.0000  -0.0000  -0.0000

          k = 0.0000-0.5774 0.0000 (  5356 PWs)   bands (ev):

   -51.4052 -51.3913 -27.8793 -27.8735 -27.5652 -27.5569 -27.5336 -27.5249
    -8.6740  -8.6445  -8.5147  -8.4837  -2.0714  -2.0318  -1.1151  -0.9908
    -0.4180  -0.3913   0.4540   0.4966   1.5467   1.8890   2.3110   2.3626
     3.0374   3.1488   6.3930   6.4039   6.8034   6.8256   7.2818   7.5903
     8.0680   8.1919   9.2808   9.8089  11.0361  11.0819  11.4860  11.5720
    12.5084  12.5656  13.1759  13.4008  13.9205  13.9442  14.0406  14.3231
    14.9984  15.0472  16.4065  16.8388  17.6639  17.7161  17.8908  18.6577
    18.8244  19.0706  19.7288  20.0001

     occupation numbers 
     1.0000   1.0000   1.0000   1.0000   1.0000   1.0000   1.0000   1.0000
     1.0000   1.0000   1.0000   1.0000   1.0000   1.0000   1.0000   1.0000
     1.0000   1.0000   1.0000   1.0000   1.0000   1.0000   1.0000   1.0001
     0.9326   0.6809  -0.0000  -0.0000  -0.0000  -0.0000  -0.0000  -0.0000
    -0.0000  -0.0000  -0.0000  -0.0000  -0.0000  -0.0000  -0.0000  -0.0000
    -0.0000  -0.0000  -0.0000  -0.0000  -0.0000  -0.0000  -0.0000  -0.0000
    -0.0000  -0.0000  -0.0000  -0.0000  -0.0000  -0.0000  -0.0000  -0.0000
    -0.0000  -0.0000  -0.0000  -0.0000

          k = 0.0625 0.1083 0.0000 (  5375 PWs)   bands (ev):

   -51.4454 -51.4317 -27.6523 -27.6450 -27.4834 -27.4745 -27.4444 -27.4351
   -10.1919 -10.1281  -9.0085  -8.9140  -1.9257  -1.6230   0.5748   0.6203
     0.9733   1.1306   1.1785   1.3491   1.7758   1.8152   2.2700   2.5744
     3.7572   4.0496   6.1233   6.2308   6.2430   6.3042   6.3614   6.4167
     6.6737   6.7101   9.0083   9.4026   9.5549   9.9511  11.6093  11.8817
    12.3571  12.4962  13.2379  13.5037  14.1773  14.3250  14.4402  14.7040
    14.9854  15.6552  15.9064  15.9780  16.0943  17.1718  17.6953  18.3167
    18.3609  18.7362  18.7537  19.0500

     occupation numbers 
     1.0000   1.0000   1.0000   1.0000   1.0000   1.0000   1.0000   1.0000
     1.0000   1.0000   1.0000   1.0000   1.0000   1.0000   1.0000   1.0000
     1.0000   1.0000   1.0000   1.0000   1.0000   1.0000   1.0000   1.0024
    -0.0076  -0.0001  -0.0000  -0.0000  -0.0000  -0.0000  -0.0000  -0.0000
    -0.0000  -0.0000  -0.0000  -0.0000  -0.0000  -0.0000  -0.0000  -0.0000
    -0.0000  -0.0000  -0.0000  -0.0000  -0.0000  -0.0000  -0.0000  -0.0000
    -0.0000  -0.0000  -0.0000  -0.0000  -0.0000  -0.0000  -0.0000  -0.0000
    -0.0000  -0.0000  -0.0000  -0.0000

          k = 0.0625 0.1804 0.0000 (  5353 PWs)   bands (ev):

   -51.4393 -51.4256 -27.6391 -27.6317 -27.5440 -27.5356 -27.4595 -27.4503
    -9.9920  -9.9298  -8.9423  -8.8550  -1.7105  -1.4135   0.1785   0.2181
     0.6267   0.9204   1.3153   1.3499   1.4253   1.4787   2.3028   2.6186
     3.5810   3.7439   5.8740   6.1183   6.2069   6.2422   6.2745   6.3936
     7.0301   7.0794   9.3299   9.8760  10.2878  10.5948  11.8880  12.0139
    12.8009  13.0114  13.0564  13.1520  14.0983  14.2023  14.5560  14.8142
    14.9351  15.5069  15.6807  15.9133  16.0754  17.1649  17.3289  17.5955
    17.9529  18.2314  18.4656  19.2707

     occupation numbers 
     1.0000   1.0000   1.0000   1.0000   1.0000   1.0000   1.0000   1.0000
     1.0000   1.0000   1.0000   1.0000   1.0000   1.0000   1.0000   1.0000
     1.0000   1.0000   1.0000   1.0000   1.0000   1.0000   1.0000   1.0045
    -0.0329  -0.0089  -0.0000  -0.0000  -0.0000  -0.0000  -0.0000  -0.0000
    -0.0000  -0.0000  -0.0000  -0.0000  -0.0000  -0.0000  -0.0000  -0.0000
    -0.0000  -0.0000  -0.0000  -0.0000  -0.0000  -0.0000  -0.0000  -0.0000
    -0.0000  -0.0000  -0.0000  -0.0000  -0.0000  -0.0000  -0.0000  -0.0000
    -0.0000  -0.0000  -0.0000  -0.0000

          k = 0.0625 0.2526 0.0000 (  5369 PWs)   bands (ev):

   -51.4313 -51.4175 -27.6230 -27.6211 -27.6145 -27.6143 -27.4794 -27.4703
    -9.7184  -9.6592  -8.8518  -8.7746  -1.4890  -1.2208  -0.2009  -0.1715
     0.2261   0.4392   1.0660   1.1238   1.5418   1.5912   2.1981   2.5082
     3.2792   3.3613   5.7586   6.0283   6.1662   6.2850   6.3855   6.5807
     7.4113   7.4690   9.7249  10.2542  10.9058  11.4576  12.0095  12.3550
    12.5113  12.7501  12.7963  13.1871  14.2573  14.4262  14.8353  14.9593
    15.1466  15.5912  15.7051  16.0427  16.1415  16.5906  16.9451  17.2814
    17.5754  17.8523  18.3093  19.2299

     occupation numbers 
     1.0000   1.0000   1.0000   1.0000   1.0000   1.0000   1.0000   1.0000
     1.0000   1.0000   1.0000   1.0000   1.0000   1.0000   1.0000   1.0000
     1.0000   1.0000   1.0000   1.0000   1.0000   1.0000   1.0000   1.0008
     0.2882   0.0981  -0.0000  -0.0000  -0.0000  -0.0000  -0.0000  -0.0000
    -0.0000  -0.0000  -0.0000  -0.0000  -0.0000  -0.0000  -0.0000  -0.0000
    -0.0000  -0.0000  -0.0000  -0.0000  -0.0000  -0.0000  -0.0000  -0.0000
    -0.0000  -0.0000  -0.0000  -0.0000  -0.0000  -0.0000  -0.0000  -0.0000
    -0.0000  -0.0000  -0.0000  -0.0000

          k = 0.0625 0.3248 0.0000 (  5372 PWs)   bands (ev):

   -51.4227 -51.4088 -27.7057 -27.6985 -27.6031 -27.5953 -27.5007 -27.4918
    -9.4029  -9.3485  -8.7477  -8.6827  -1.4445  -1.2692  -0.4037  -0.3276
    -0.1916  -0.0476   0.7903   0.8621   1.7481   1.7933   2.0074   2.3143
     2.9883   3.0543   5.8117   6.0274   6.2173   6.3831   6.6707   6.8940
     7.7305   7.7877  10.1748  10.5995  11.0483  11.5569  11.7783  12.1450
    12.2654  12.7024  13.1110  13.3688  14.2785  14.8177  14.9358  15.0923
    15.2558  15.5495  15.7739  16.0520  16.2199  16.7972  16.9808  17.5107
    17.6678  17.8610  18.2172  18.7637

     occupation numbers 
     1.0000   1.0000   1.0000   1.0000   1.0000   1.0000   1.0000   1.0000
     1.0000   1.0000   1.0000   1.0000   1.0000   1.0000   1.0000   1.0000
     1.0000   1.0000   1.0000   1.0000   1.0000   1.0000   1.0000   1.0000
     0.9924   0.9046  -0.0000  -0.0000  -0.0000  -0.0000  -0.0000  -0.0000
    -0.0000  -0.0000  -0.0000  -0.0000  -0.0000  -0.0000  -0.0000  -0.0000
    -0.0000  -0.0000  -0.0000  -0.0000  -0.0000  -0.0000  -0.0000  -0.0000
    -0.0000  -0.0000  -0.0000  -0.0000  -0.0000  -0.0000  -0.0000  -0.0000
    -0.0000  -0.0000  -0.0000  -0.0000

          k = 0.0625 0.3969 0.0000 (  5375 PWs)   bands (ev):

   -51.4147 -51.4008 -27.7816 -27.7751 -27.5858 -27.5778 -27.5204 -27.5116
    -9.0881  -9.0408  -8.6448  -8.5929  -1.6356  -1.5404  -0.6571  -0.5271
    -0.3389  -0.2696   0.6091   0.6758   1.8013   1.9003   1.9361   2.1224
     2.8899   2.9644   5.9897   6.1358   6.3692   6.5269   6.9882   7.2141
     7.9309   7.9811  10.5448  10.7814  10.8818  11.1023  11.3330  11.9010
    12.0338  12.8888  13.1747  13.9352  14.0876  14.3513  14.8417  15.0782
    15.3277  15.4323  16.0656  16.4598  16.6904  17.1097  17.4587  17.5145
    18.0929  18.2194  18.4426  18.5763

     occupation numbers 
     1.0000   1.0000   1.0000   1.0000   1.0000   1.0000   1.0000   1.0000
     1.0000   1.0000   1.0000   1.0000   1.0000   1.0000   1.0000   1.0000
     1.0000   1.0000   1.0000   1.0000   1.0000   1.0000   1.0000   1.0000
     1.0350   1.0109  -0.0000  -0.0000  -0.0000  -0.0000  -0.0000  -0.0000
    -0.0000  -0.0000  -0.0000  -0.0000  -0.0000  -0.0000  -0.0000  -0.0000
    -0.0000  -0.0000  -0.0000  -0.0000  -0.0000  -0.0000  -0.0000  -0.0000
    -0.0000  -0.0000  -0.0000  -0.0000  -0.0000  -0.0000  -0.0000  -0.0000
    -0.0000  -0.0000  -0.0000  -0.0000

          k = 0.0625 0.4691 0.0000 (  5388 PWs)   bands (ev):

   -51.4086 -51.3946 -27.8391 -27.8331 -27.5724 -27.5643 -27.5354 -27.5267
    -8.8273  -8.7890  -8.5604  -8.5207  -1.8612  -1.8037  -0.9646  -0.8480
    -0.3543  -0.3112   0.5030   0.5571   1.6550   1.9669   1.9961   2.0507
     2.9839   3.0766   6.2136   6.2918   6.5732   6.6973   7.2431   7.4697
     7.9788   8.0548   9.9811  10.3621  11.0726  11.1677  11.3266  11.7730
    12.1277  12.9432  13.3175  13.6038  13.7890  13.9301  14.4259  14.6606
    15.4281  15.5659  16.2604  16.8088  17.0144  17.4872  17.6035  17.9867
    18.0240  18.7112  18.9170  19.2468

     occupation numbers 
     1.0000   1.0000   1.0000   1.0000   1.0000   1.0000   1.0000   1.0000
     1.0000   1.0000   1.0000   1.0000   1.0000   1.0000   1.0000   1.0000
     1.0000   1.0000   1.0000   1.0000   1.0000   1.0000   1.0000   1.0000
     0.9963   0.8617  -0.0000  -0.0000  -0.0000  -0.0000  -0.0000  -0.0000
    -0.0000  -0.0000  -0.0000  -0.0000  -0.0000  -0.0000  -0.0000  -0.0000
    -0.0000  -0.0000  -0.0000  -0.0000  -0.0000  -0.0000  -0.0000  -0.0000
    -0.0000  -0.0000  -0.0000  -0.0000  -0.0000  -0.0000  -0.0000  -0.0000
    -0.0000  -0.0000  -0.0000  -0.0000

          k = 0.0625 0.5413 0.0000 (  5384 PWs)   bands (ev):

   -51.4052 -51.3913 -27.8700 -27.8642 -27.5652 -27.5569 -27.5435 -27.5349
    -8.6768  -8.6464  -8.5118  -8.4803  -1.9959  -1.9565  -1.1346  -1.0234
    -0.3933  -0.3683   0.4547   0.4994   1.5766   1.8977   2.0542   2.1072
     3.1124   3.2144   6.3509   6.3810   6.7865   6.8440   7.3699   7.6358
     7.9303   8.0584   9.4211   9.9719  11.2242  11.2977  11.5495  11.7966
    12.3699  12.7553  13.0969  13.5041  13.6747  13.7692  14.1698  14.4001
    15.0773  15.3279  16.3038  16.8428  17.4945  17.6029  17.8161  18.2830
    18.5989  18.9782  19.3416  19.5370

     occupation numbers 
     1.0000   1.0000   1.0000   1.0000   1.0000   1.0000   1.0000   1.0000
     1.0000   1.0000   1.0000   1.0000   1.0000   1.0000   1.0000   1.0000
     1.0000   1.0000   1.0000   1.0000   1.0000   1.0000   1.0000   1.0000
     0.7793   0.4817  -0.0000  -0.0000  -0.0000  -0.0000  -0.0000  -0.0000
    -0.0000  -0.0000  -0.0000  -0.0000  -0.0000  -0.0000  -0.0000  -0.0000
    -0.0000  -0.0000  -0.0000  -0.0000  -0.0000  -0.0000  -0.0000  -0.0000
    -0.0000  -0.0000  -0.0000  -0.0000  -0.0000  -0.0000  -0.0000  -0.0000
    -0.0000  -0.0000  -0.0000  -0.0000

          k = 0.1250 0.2165 0.0000 (  5360 PWs)   bands (ev):

   -51.4325 -51.4188 -27.6245 -27.6169 -27.6064 -27.5985 -27.4804 -27.4713
    -9.7612  -9.7014  -8.8655  -8.7867  -1.5020  -1.2224  -0.1462  -0.1156
     0.3658   0.5941   0.9498   0.9876   1.4695   1.5172   2.3557   2.6353
     3.3485   3.4187   5.7221   5.9673   6.1713   6.2701   6.2882   6.4733
     7.4253   7.4884   9.6759  10.2318  10.9778  11.4130  12.0556  12.2922
    12.4990  12.8616  13.1297  13.2248  14.0504  14.3367  14.5225  14.7777
    14.8822  15.4718  15.7511  16.0107  16.0986  16.6028  16.8587  17.5841
    17.6607  18.1413  18.3351  19.4578

     occupation numbers 
     1.0000   1.0000   1.0000   1.0000   1.0000   1.0000   1.0000   1.0000
     1.0000   1.0000   1.0000   1.0000   1.0000   1.0000   1.0000   1.0000
     1.0000   1.0000   1.0000   1.0000   1.0000   1.0000   1.0000   1.0056
     0.1221   0.0174  -0.0000  -0.0000  -0.0000  -0.0000  -0.0000  -0.0000
    -0.0000  -0.0000  -0.0000  -0.0000  -0.0000  -0.0000  -0.0000  -0.0000
    -0.0000  -0.0000  -0.0000  -0.0000  -0.0000  -0.0000  -0.0000  -0.0000
    -0.0000  -0.0000  -0.0000  -0.0000  -0.0000  -0.0000  -0.0000  -0.0000
    -0.0000  -0.0000  -0.0000  -0.0000

          k = 0.1250 0.2887 0.0000 (  5373 PWs)   bands (ev):

   -51.4246 -51.4107 -27.6778 -27.6705 -27.6072 -27.5995 -27.5063 -27.4974
    -9.4738  -9.4181  -8.7696  -8.7016  -1.3741  -1.1619  -0.3575  -0.3044
     0.0079   0.1296   0.5772   0.6927   1.5652   1.6067   2.2736   2.5211
     3.0962   3.1230   5.6615   5.9188   6.2623   6.3976   6.4591   6.6510
     7.7850   7.8471  10.1101  10.6035  11.3442  11.8769  12.0816  12.3805
    12.5759  12.7536  12.9928  13.0977  14.2628  14.5765  14.7120  14.7326
    14.9731  15.1429  15.2976  15.9697  16.1051  16.7231  16.7718  17.6975
    17.8867  18.1313  18.3373  19.5448

     occupation numbers 
     1.0000   1.0000   1.0000   1.0000   1.0000   1.0000   1.0000   1.0000
     1.0000   1.0000   1.0000   1.0000   1.0000   1.0000   1.0000   1.0000
     1.0000   1.0000   1.0000   1.0000   1.0000   1.0000   1.0000   1.0010
     0.8185   0.7521  -0.0000  -0.0000  -0.0000  -0.0000  -0.0000  -0.0000
    -0.0000  -0.0000  -0.0000  -0.0000  -0.0000  -0.0000  -0.0000  -0.0000
    -0.0000  -0.0000  -0.0000  -0.0000  -0.0000  -0.0000  -0.0000  -0.0000
    -0.0000  -0.0000  -0.0000  -0.0000  -0.0000  -0.0000  -0.0000  -0.0000
    -0.0000  -0.0000  -0.0000  -0.0000

          k = 0.1250 0.3608 0.0000 (  5378 PWs)   bands (ev):

   -51.4166 -51.4027 -27.7478 -27.7411 -27.5899 -27.5819 -27.5326 -27.5239
    -9.1661  -9.1164  -8.6666  -8.6110  -1.4638  -1.3425  -0.5073  -0.4155
    -0.3032  -0.2331   0.4301   0.5651   1.5513   1.5912   2.0816   2.3153
     2.9713   3.0130   5.7654   6.0383   6.4400   6.5362   6.7339   6.9272
     8.0184   8.0693  10.5762  10.9463  11.2959  11.3488  11.8033  12.1716
    12.3820  13.0432  13.1819  13.6796  14.1413  14.3252  14.5917  14.8963
    14.9980  15.2226  15.4956  15.8158  16.1813  17.1878  17.2840  17.5680
    18.0969  18.3109  18.5244  18.7478

     occupation numbers 
     1.0000   1.0000   1.0000   1.0000   1.0000   1.0000   1.0000   1.0000
     1.0000   1.0000   1.0000   1.0000   1.0000   1.0000   1.0000   1.0000
     1.0000   1.0000   1.0000   1.0000   1.0000   1.0000   1.0000   1.0000
     1.0062   0.9662  -0.0000  -0.0000  -0.0000  -0.0000  -0.0000  -0.0000
    -0.0000  -0.0000  -0.0000  -0.0000  -0.0000  -0.0000  -0.0000  -0.0000
    -0.0000  -0.0000  -0.0000  -0.0000  -0.0000  -0.0000  -0.0000  -0.0000
    -0.0000  -0.0000  -0.0000  -0.0000  -0.0000  -0.0000  -0.0000  -0.0000
    -0.0000  -0.0000  -0.0000  -0.0000

          k = 0.1250 0.4330 0.0000 (  5376 PWs)   bands (ev):

   -51.4098 -51.3959 -27.8063 -27.8000 -27.5751 -27.5670 -27.5550 -27.5464
    -8.8847  -8.8433  -8.5724  -8.5293  -1.6516  -1.5793  -0.9045  -0.8220
    -0.2873  -0.2277   0.4044   0.5179   1.5080   1.5570   1.8552   2.0951
     3.0388   3.0990   6.0015   6.2434   6.6218   6.6603   7.0505   7.2320
     8.0474   8.1415  10.4667  10.8222  11.2043  11.4348  11.5126  12.0736
    12.3215  13.1041  13.3192  13.4827  13.9268  14.1379  14.1567  15.0213
    15.3988  15.4425  15.9493  16.4089  16.4935  16.8856  17.5145  17.6985
    17.8434  18.2263  18.4182  19.0651

     occupation numbers 
     1.0000   1.0000   1.0000   1.0000   1.0000   1.0000   1.0000   1.0000
     1.0000   1.0000   1.0000   1.0000   1.0000   1.0000   1.0000   1.0000
     1.0000   1.0000   1.0000   1.0000   1.0000   1.0000   1.0000   1.0000
     0.9303   0.8120  -0.0000  -0.0000  -0.0000  -0.0000  -0.0000  -0.0000
    -0.0000  -0.0000  -0.0000  -0.0000  -0.0000  -0.0000  -0.0000  -0.0000
    -0.0000  -0.0000  -0.0000  -0.0000  -0.0000  -0.0000  -0.0000  -0.0000
    -0.0000  -0.0000  -0.0000  -0.0000  -0.0000  -0.0000  -0.0000  -0.0000
    -0.0000  -0.0000  -0.0000  -0.0000

          k = 0.1250 0.5052 0.0000 (  5376 PWs)   bands (ev):

   -51.4052 -51.3913 -27.8450 -27.8390 -27.5700 -27.5652 -27.5615 -27.5570
    -8.6833  -8.6509  -8.5048  -8.4720  -1.7952  -1.7523  -1.1785  -1.0985
    -0.3242  -0.2959   0.4311   0.5109   1.5056   1.5707   1.6706   1.9273
     3.1979   3.2767   6.2060   6.3102   6.7929   6.8818   7.3580   7.4948
     7.8903   8.0815   9.7885  10.3817  11.5178  11.6811  11.8439  12.0626
    12.4489  12.8256  13.0756  13.4274  13.7282  13.8616  14.0403  14.7178
    15.3468  15.7020  16.0972  16.4760  17.0295  17.1599  17.5521  17.7377
    18.1100  18.4159  18.5748  19.2074

     occupation numbers 
     1.0000   1.0000   1.0000   1.0000   1.0000   1.0000   1.0000   1.0000
     1.0000   1.0000   1.0000   1.0000   1.0000   1.0000   1.0000   1.0000
     1.0000   1.0000   1.0000   1.0000   1.0000   1.0000   1.0000   1.0000
     0.5331   0.2953  -0.0000  -0.0000  -0.0000  -0.0000  -0.0000  -0.0000
    -0.0000  -0.0000  -0.0000  -0.0000  -0.0000  -0.0000  -0.0000  -0.0000
    -0.0000  -0.0000  -0.0000  -0.0000  -0.0000  -0.0000  -0.0000  -0.0000
    -0.0000  -0.0000  -0.0000  -0.0000  -0.0000  -0.0000  -0.0000  -0.0000
    -0.0000  -0.0000  -0.0000  -0.0000

          k = 0.1250 0.5774 0.0000 (  5388 PWs)   bands (ev):

   -51.4036 -51.3897 -27.8586 -27.8527 -27.5752 -27.5668 -27.5618 -27.5535
    -8.6094  -8.5817  -8.4796  -8.4511  -1.8451  -1.8162  -1.2743  -1.1946
    -0.3569  -0.3362   0.4528   0.5117   1.5144   1.5836   1.5971   1.8635
     3.2834   3.3710   6.2576   6.2939   6.9049   7.0205   7.5928   7.6388
     7.6725   8.0038   9.5006  10.1483  11.7293  11.9131  12.0003  12.2080
    12.4601  12.6668  12.6997  13.2874  13.7016  13.8716  14.2658  14.3806
    15.1789  15.4913  16.2928  16.6433  16.9466  17.3944  17.7161  17.7332
    18.2524  18.4769  19.0723  19.1529

     occupation numbers 
     1.0000   1.0000   1.0000   1.0000   1.0000   1.0000   1.0000   1.0000
     1.0000   1.0000   1.0000   1.0000   1.0000   1.0000   1.0000   1.0000
     1.0000   1.0000   1.0000   1.0000   1.0000   1.0000   1.0000   1.0000
     0.2767   0.0813  -0.0000  -0.0000  -0.0000  -0.0000  -0.0000  -0.0000
    -0.0000  -0.0000  -0.0000  -0.0000  -0.0000  -0.0000  -0.0000  -0.0000
    -0.0000  -0.0000  -0.0000  -0.0000  -0.0000  -0.0000  -0.0000  -0.0000
    -0.0000  -0.0000  -0.0000  -0.0000  -0.0000  -0.0000  -0.0000  -0.0000
    -0.0000  -0.0000  -0.0000  -0.0000

          k = 0.1875 0.3248 0.0000 (  5384 PWs)   bands (ev):

   -51.4172 -51.4034 -27.7326 -27.7258 -27.5913 -27.5834 -27.5403 -27.5316
    -9.1932  -9.1427  -8.6738  -8.6169  -1.3866  -1.2502  -0.4232  -0.3713
    -0.2798  -0.2145   0.3225   0.4929   1.4007   1.4387   2.2124   2.4077
     3.0026   3.0269   5.6809   5.9929   6.4579   6.5414   6.6207   6.7966
     8.0728   8.1261  10.5674  10.9822  11.4236  11.6545  12.0515  12.2960
    12.7010  13.1115  13.1933  13.5206  14.1344  14.2108  14.4389  14.5569
    14.7378  15.1633  15.2359  15.7722  15.9599  17.1965  17.2253  17.4597
    18.1348  18.2586  18.8452  19.2798

     occupation numbers 
     1.0000   1.0000   1.0000   1.0000   1.0000   1.0000   1.0000   1.0000
     1.0000   1.0000   1.0000   1.0000   1.0000   1.0000   1.0000   1.0000
     1.0000   1.0000   1.0000   1.0000   1.0000   1.0000   1.0000   1.0001
     0.9781   0.9480  -0.0000  -0.0000  -0.0000  -0.0000  -0.0000  -0.0000
    -0.0000  -0.0000  -0.0000  -0.0000  -0.0000  -0.0000  -0.0000  -0.0000
    -0.0000  -0.0000  -0.0000  -0.0000  -0.0000  -0.0000  -0.0000  -0.0000
    -0.0000  -0.0000  -0.0000  -0.0000  -0.0000  -0.0000  -0.0000  -0.0000
    -0.0000  -0.0000  -0.0000  -0.0000

          k = 0.1875 0.3969 0.0000 (  5374 PWs)   bands (ev):

   -51.4104 -51.3965 -27.7797 -27.7732 -27.5766 -27.5746 -27.5685 -27.5662
    -8.9161  -8.8730  -8.5777  -8.5327  -1.4845  -1.3930  -0.8537  -0.8149
    -0.2253  -0.1310   0.3061   0.4693   1.1381   1.1728   2.0226   2.1933
     3.0602   3.0962   5.8631   6.1968   6.6582   6.6646   6.8470   7.0120
     8.2074   8.2681  10.8354  11.1345  11.2945  11.4490  11.8179  12.3852
    12.6027  13.0489  13.3670  13.5427  13.8982  14.2495  14.5027  14.9254
    15.1132  15.3164  15.4038  15.7322  16.0494  17.0477  17.2751  17.4605
    17.8582  18.0848  18.5717  18.9660

     occupation numbers 
     1.0000   1.0000   1.0000   1.0000   1.0000   1.0000   1.0000   1.0000
     1.0000   1.0000   1.0000   1.0000   1.0000   1.0000   1.0000   1.0000
     1.0000   1.0000   1.0000   1.0000   1.0000   1.0000   1.0000   1.0000
     0.8939   0.8185  -0.0000  -0.0000  -0.0000  -0.0000  -0.0000  -0.0000
    -0.0000  -0.0000  -0.0000  -0.0000  -0.0000  -0.0000  -0.0000  -0.0000
    -0.0000  -0.0000  -0.0000  -0.0000  -0.0000  -0.0000  -0.0000  -0.0000
    -0.0000  -0.0000  -0.0000  -0.0000  -0.0000  -0.0000  -0.0000  -0.0000
    -0.0000  -0.0000  -0.0000  -0.0000

          k = 0.1875 0.4691 0.0000 (  5377 PWs)   bands (ev):

   -51.4052 -51.3913 -27.8140 -27.8078 -27.6024 -27.5942 -27.5653 -27.5570
    -8.6896  -8.6555  -8.4977  -8.4636  -1.5609  -1.4999  -1.2171  -1.1699
    -0.2224  -0.1629   0.3876   0.5212   0.9475   1.0061   1.7855   1.9606
     3.2415   3.2858   6.0444   6.2213   6.8126   6.9140   7.1062   7.2326
     8.1757   8.3089  10.2736  10.8284  11.5331  11.6986  11.9026  12.4553
    12.6233  12.8314  13.2241  13.7557  13.7924  14.2489  14.4541  14.9940
    15.3139  15.5298  15.8502  16.2336  16.5068  16.5221  16.8844  17.3864
    17.6931  18.1160  18.3553  18.5236

     occupation numbers 
     1.0000   1.0000   1.0000   1.0000   1.0000   1.0000   1.0000   1.0000
     1.0000   1.0000   1.0000   1.0000   1.0000   1.0000   1.0000   1.0000
     1.0000   1.0000   1.0000   1.0000   1.0000   1.0000   1.0000   1.0000
     0.3984   0.2701  -0.0000  -0.0000  -0.0000  -0.0000  -0.0000  -0.0000
    -0.0000  -0.0000  -0.0000  -0.0000  -0.0000  -0.0000  -0.0000  -0.0000
    -0.0000  -0.0000  -0.0000  -0.0000  -0.0000  -0.0000  -0.0000  -0.0000
    -0.0000  -0.0000  -0.0000  -0.0000  -0.0000  -0.0000  -0.0000  -0.0000
    -0.0000  -0.0000  -0.0000  -0.0000

          k = 0.1875 0.5413 0.0000 (  5373 PWs)   bands (ev):

   -51.4024 -51.3885 -27.8319 -27.8259 -27.6179 -27.6098 -27.5591 -27.5508
    -8.5609  -8.5345  -8.4509  -8.4240  -1.5830  -1.5547  -1.4120  -1.3612
    -0.2982  -0.2552   0.4830   0.5779   0.8770   0.9647   1.6111   1.8015
     3.4180   3.4778   6.0519   6.0951   7.0084   7.1538   7.3107   7.3722
     8.0820   8.2924   9.8101  10.4722  11.6471  12.1255  12.2517  12.4027
    12.6864  12.9488  12.9731  13.4594  13.9471  14.2362  14.3665  14.7962
    15.2845  15.6670  15.9926  16.2207  16.5185  16.9332  17.0413  17.1523
    17.8529  18.1173  18.3493  18.7268

     occupation numbers 
     1.0000   1.0000   1.0000   1.0000   1.0000   1.0000   1.0000   1.0000
     1.0000   1.0000   1.0000   1.0000   1.0000   1.0000   1.0000   1.0000
     1.0000   1.0000   1.0000   1.0000   1.0000   1.0000   1.0000   1.0000
     0.0181  -0.0240  -0.0000  -0.0000  -0.0000  -0.0000  -0.0000  -0.0000
    -0.0000  -0.0000  -0.0000  -0.0000  -0.0000  -0.0000  -0.0000  -0.0000
    -0.0000  -0.0000  -0.0000  -0.0000  -0.0000  -0.0000  -0.0000  -0.0000
    -0.0000  -0.0000  -0.0000  -0.0000  -0.0000  -0.0000  -0.0000  -0.0000
    -0.0000  -0.0000  -0.0000  -0.0000

          k = 0.2500 0.4330 0.0000 (  5370 PWs)   bands (ev):

   -51.4052 -51.3913 -27.7979 -27.7916 -27.6191 -27.6110 -27.5653 -27.5570
    -8.6923  -8.6574  -8.4947  -8.4602  -1.4508  -1.3737  -1.2304  -1.1990
    -0.1428  -0.0491   0.3674   0.5229   0.6809   0.6971   1.8436   1.9724
     3.2574   3.2787   5.9766   6.1815   6.8135   6.9158   7.0092   7.1301
     8.3470   8.3939  10.6834  10.8517  11.5441  11.6006  11.7566  12.6183
    12.8525  12.9173  13.0760  13.9500  14.3314  14.4404  14.7340  15.2431
    15.2647  15.3550  15.4091  15.6382  16.1093  16.6996  16.7066  17.3210
    17.4458  17.8579  18.0584  18.8038

     occupation numbers 
     1.0000   1.0000   1.0000   1.0000   1.0000   1.0000   1.0000   1.0000
     1.0000   1.0000   1.0000   1.0000   1.0000   1.0000   1.0000   1.0000
     1.0000   1.0000   1.0000   1.0000   1.0000   1.0000   1.0000   1.0000
     0.3506   0.2897  -0.0000  -0.0000  -0.0000  -0.0000  -0.0000  -0.0000
    -0.0000  -0.0000  -0.0000  -0.0000  -0.0000  -0.0000  -0.0000  -0.0000
    -0.0000  -0.0000  -0.0000  -0.0000  -0.0000  -0.0000  -0.0000  -0.0000
    -0.0000  -0.0000  -0.0000  -0.0000  -0.0000  -0.0000  -0.0000  -0.0000
    -0.0000  -0.0000  -0.0000  -0.0000

          k = 0.2500 0.5052 0.0000 (  5358 PWs)   bands (ev):

   -51.4018 -51.3878 -27.8035 -27.7974 -27.6553 -27.6473 -27.5578 -27.5494
    -8.5359  -8.5098  -8.4337  -8.4075  -1.4990  -1.4651  -1.3439  -1.2822
    -0.2045  -0.1101   0.3432   0.4216   0.5113   0.6407   1.6295   1.7431
     3.5095   3.5315   5.8816   5.9371   6.9744   7.0724   7.2266   7.3645
     8.4183   8.5021  10.2635  10.7023  11.2186  11.6759  12.0722  12.8734
    13.0235  13.2269  13.3892  14.1924  14.2841  14.6323  14.7787  15.0235
    15.2684  15.4083  15.8159  15.9027  16.2517  16.2923  16.6209  16.7857
    17.2830  17.6618  17.9094  18.6400

     occupation numbers 
     1.0000   1.0000   1.0000   1.0000   1.0000   1.0000   1.0000   1.0000
     1.0000   1.0000   1.0000   1.0000   1.0000   1.0000   1.0000   1.0000
     1.0000   1.0000   1.0000   1.0000   1.0000   1.0000   1.0000   1.0000
    -0.0329  -0.0352  -0.0000  -0.0000  -0.0000  -0.0000  -0.0000  -0.0000
    -0.0000  -0.0000  -0.0000  -0.0000  -0.0000  -0.0000  -0.0000  -0.0000
    -0.0000  -0.0000  -0.0000  -0.0000  -0.0000  -0.0000  -0.0000  -0.0000
    -0.0000  -0.0000  -0.0000  -0.0000  -0.0000  -0.0000  -0.0000  -0.0000
    -0.0000  -0.0000  -0.0000  -0.0000

          k = 0.2500 0.5774 0.0000 (  5362 PWs)   bands (ev):

   -51.4005 -51.3866 -27.8036 -27.7975 -27.6699 -27.6620 -27.5551 -27.5467
    -8.4798  -8.4586  -8.4106  -8.3871  -1.5925  -1.5568  -1.2587  -1.2303
    -0.3032  -0.2207   0.2620   0.3758   0.5931   0.7034   1.5228   1.6352
     3.6397   3.6727   5.7692   5.7910   7.0464   7.0819   7.3786   7.4958
     8.4341   8.5486  10.0472  10.6424  11.0583  11.7364  12.2353  12.9688
    13.3142  13.3943  13.6869  13.7701  14.4317  14.4939  14.7960  15.0189
    15.3550  15.5015  15.6312  15.7998  16.3484  16.4607  16.4978  16.8204
    17.3069  17.3888  18.1936  18.6745

     occupation numbers 
     1.0000   1.0000   1.0000   1.0000   1.0000   1.0000   1.0000   1.0000
     1.0000   1.0000   1.0000   1.0000   1.0000   1.0000   1.0000   1.0000
     1.0000   1.0000   1.0000   1.0000   1.0000   1.0000   1.0000   1.0000
    -0.0238  -0.0183  -0.0000  -0.0000  -0.0000  -0.0000  -0.0000  -0.0000
    -0.0000  -0.0000  -0.0000  -0.0000  -0.0000  -0.0000  -0.0000  -0.0000
    -0.0000  -0.0000  -0.0000  -0.0000  -0.0000  -0.0000  -0.0000  -0.0000
    -0.0000  -0.0000  -0.0000  -0.0000  -0.0000  -0.0000  -0.0000  -0.0000
    -0.0000  -0.0000  -0.0000  -0.0000

          k = 0.3125 0.5413 0.0000 (  5370 PWs)   bands (ev):

   -51.3999 -51.3859 -27.7815 -27.7755 -27.7003 -27.6924 -27.5537 -27.5453
    -8.4517  -8.4329  -8.3955  -8.3726  -1.6587  -1.6267  -1.0443  -0.9775
    -0.3519  -0.2648   0.0046   0.0710   0.6509   0.7747   1.4848   1.5395
     3.7554   3.7618   5.6186   5.6419   6.9830   7.0260   7.4778   7.5766
     8.6107   8.6492  10.3588  10.5584  10.8737  11.3787  12.2109  13.4130
    13.4570  13.6620  13.9719  14.2852  14.4233  14.7231  14.8473  15.0484
    15.1971  15.5516  15.5711  15.8273  16.1305  16.3534  16.3964  16.6009
    16.6191  17.1911  18.3051  18.5479

     occupation numbers 
     1.0000   1.0000   1.0000   1.0000   1.0000   1.0000   1.0000   1.0000
     1.0000   1.0000   1.0000   1.0000   1.0000   1.0000   1.0000   1.0000
     1.0000   1.0000   1.0000   1.0000   1.0000   1.0000   1.0000   1.0000
    -0.0077  -0.0072  -0.0000  -0.0000  -0.0000  -0.0000  -0.0000  -0.0000
    -0.0000  -0.0000  -0.0000  -0.0000  -0.0000  -0.0000  -0.0000  -0.0000
    -0.0000  -0.0000  -0.0000  -0.0000  -0.0000  -0.0000  -0.0000  -0.0000
    -0.0000  -0.0000  -0.0000  -0.0000  -0.0000  -0.0000  -0.0000  -0.0000
    -0.0000  -0.0000  -0.0000  -0.0000

     the Fermi energy is     3.2085 ev

!    total energy              =    -907.91149473 Ry

     total all-electron energy =    -18448.320517 Ry
     estimated scf accuracy    <          4.2E-10 Ry
     smearing contrib. (-TS)   =      -0.00192726 Ry
     internal energy E=F+TS    =    -907.90956747 Ry

     The total energy is F=E-TS. E is the sum of the following terms:
     one-electron contribution =   -1048.08180836 Ry
     hartree contribution      =     537.56953013 Ry
     xc contribution           =     -65.32317916 Ry
     ewald contribution        =     256.18108273 Ry
     one-center paw contrib.   =    -588.25519281 Ry
      -> PAW hartree energy AE =     100.87603272 Ry
      -> PAW hartree energy PS =    -100.36190842 Ry
      -> PAW xc energy AE      =    -324.79852366 Ry
      -> PAW xc energy PS      =      30.15761801 Ry
      -> total E_H with PAW    =     538.08365443 Ry
      -> total E_XC with PAW   =    -359.96408481 Ry

     convergence has been achieved in  14 iterations

     Writing output data file ./tmp/NbS2_bi.save/

     init_run     :      8.84s CPU      9.01s WALL (       1 calls)
     electrons    :    424.20s CPU    431.33s WALL (       1 calls)

     Called by init_run:
     wfcinit      :      7.43s CPU      7.47s WALL (       1 calls)
     wfcinit:atom :      0.04s CPU      0.04s WALL (      30 calls)
     wfcinit:wfcr :      7.23s CPU      7.27s WALL (      30 calls)
     potinit      :      0.32s CPU      0.34s WALL (       1 calls)
     hinit0       :      0.61s CPU      0.62s WALL (       1 calls)

     Called by electrons:
     c_bands      :    365.10s CPU    368.25s WALL (      15 calls)
     sum_band     :     50.87s CPU     53.25s WALL (      15 calls)
     v_of_rho     :      0.46s CPU      0.51s WALL (      15 calls)
     v_h          :      0.25s CPU      0.27s WALL (      15 calls)
     v_xc         :      0.21s CPU      0.24s WALL (      15 calls)
     newd         :      6.53s CPU      8.14s WALL (      15 calls)
     PAW_pot      :      0.89s CPU      0.89s WALL (      15 calls)
     mix_rho      :      0.52s CPU      0.53s WALL (      15 calls)

     Called by c_bands:
     init_us_2    :      1.39s CPU      1.42s WALL (     930 calls)
     cegterg      :    360.38s CPU    362.96s WALL (     450 calls)

     Called by sum_band:
     sum_band:wei :      0.03s CPU      0.03s WALL (      15 calls)
     sum_band:loo :     42.00s CPU     42.46s WALL (      15 calls)
     sum_band:buf :      0.59s CPU      0.59s WALL (     450 calls)
     sum_band:ini :      0.64s CPU      0.65s WALL (     450 calls)
     sum_band:cal :     10.78s CPU     10.83s WALL (     450 calls)
     sum_band:bec :      0.05s CPU      0.05s WALL (     450 calls)
     addusdens    :      7.61s CPU      9.50s WALL (      15 calls)
     addusd:skk   :      0.03s CPU      0.04s WALL (      30 calls)
     addusd:dgemm :      2.97s CPU      4.49s WALL (      30 calls)
     addusd:qvan2 :      4.13s CPU      4.23s WALL (      30 calls)

     Called by *egterg:
     cdiaghg      :     12.69s CPU     12.72s WALL (    2084 calls)
     cegterg:over :     44.62s CPU     44.74s WALL (    1664 calls)
     cegterg:upda :     22.17s CPU     22.23s WALL (    1664 calls)
     cegterg:last :     62.92s CPU     62.96s WALL (     794 calls)
     h_psi        :    175.63s CPU    177.85s WALL (    2144 calls)
     s_psi        :     22.07s CPU     22.15s WALL (    2144 calls)
     g_psi        :      0.44s CPU      0.44s WALL (    1664 calls)

     Called by h_psi:
     h_psi:calbec :     26.05s CPU     26.17s WALL (    2144 calls)
     vloc_psi     :    126.56s CPU    128.61s WALL (    2144 calls)
     add_vuspsi   :     21.81s CPU     21.86s WALL (    2144 calls)

     General routines
     calbec       :     36.82s CPU     37.00s WALL (    2594 calls)
     fft          :      1.18s CPU      1.23s WALL (      89 calls)
     ffts         :      0.06s CPU      0.06s WALL (      30 calls)
     fftw         :    139.70s CPU    141.88s WALL (  155932 calls)
     interpolate  :      0.25s CPU      0.26s WALL (      15 calls)

     Parallel routines
     fft_scatt_xy :     14.47s CPU     14.70s WALL (  156051 calls)
     fft_scatt_yz :     20.48s CPU     20.75s WALL (  156051 calls)

     PAW routines
     PAW_pot      :      0.89s CPU      0.89s WALL (      15 calls)
     PAW_symme    :      0.00s CPU      0.00s WALL (      30 calls)

     PWSCF        :   7m14.26s CPU   7m22.86s WALL


   This run was terminated on:  17:24:36  14Jun2021            

=------------------------------------------------------------------------------=
   JOB DONE.
=------------------------------------------------------------------------------=
