
     Program PWSCF v.6.6 starts on 14Jun2021 at 16:39:45 

     This program is part of the open-source Quantum ESPRESSO suite
     for quantum simulation of materials; please cite
         "P. Giannozzi et al., J. Phys.:Condens. Matter 21 395502 (2009);
         "P. Giannozzi et al., J. Phys.:Condens. Matter 29 465901 (2017);
          URL http://www.quantum-espresso.org", 
     in publications or presentations arising from this work. More details at
     http://www.quantum-espresso.org/quote

     Parallel version (MPI), running on     2 processors

     MPI processes distributed on     1 nodes
     R & G space division:  proc/nbgrp/npool/nimage =       2
     Fft bands division:     nmany     =       1
     Waiting for input...
     Reading input from standard input

     Current dimensions of program PWSCF are:
     Max number of different atomic species (ntypx) = 10
     Max number of k-points (npk) =  40000
     Max angular momentum in pseudopotentials (lmaxx) =  3
     file Nb.pz-spn-kjpaw_psl.1.0.0.UPF: wavefunction(s)  4S 4P 4D renormalized
     file S.pz-n-kjpaw_psl.0.1.UPF: wavefunction(s)  3P renormalized

     Subspace diagonalization in iterative solution of the eigenvalue problem:
     a serial algorithm will be used


     Parallelization info
     --------------------
     sticks:   dense  smooth     PW     G-vecs:    dense   smooth      PW
     Min         534     210     60                85019    21488    3510
     Max         535     211     61                85022    21517    3533
     Sum        1069     421    121               170041    43005    7043



     bravais-lattice index     =            4
     lattice parameter (alat)  =       6.2006  a.u.
     unit-cell volume          =    1258.4114 (a.u.)^3
     number of atoms/cell      =            6
     number of atomic types    =            2
     number of electrons       =        50.00
     number of Kohn-Sham states=           60
     kinetic-energy cutoff     =      40.0000  Ry
     charge density cutoff     =     400.0000  Ry
     convergence threshold     =      1.0E-08
     mixing beta               =       0.7000
     number of iterations used =            8  plain     mixing
     Exchange-correlation= SLA PZ NOGX NOGC
                           (   1   1   0   0   0   0   0)

     celldm(1)=   6.200569  celldm(2)=   0.000000  celldm(3)=   6.095331
     celldm(4)=   0.000000  celldm(5)=   0.000000  celldm(6)=   0.000000

     crystal axes: (cart. coord. in units of alat)
               a(1) = (   1.000000   0.000000   0.000000 )  
               a(2) = (  -0.500000   0.866025   0.000000 )  
               a(3) = (   0.000000   0.000000   6.095331 )  

     reciprocal axes: (cart. coord. in units 2 pi/alat)
               b(1) = (  1.000000  0.577350 -0.000000 )  
               b(2) = (  0.000000  1.154701  0.000000 )  
               b(3) = (  0.000000 -0.000000  0.164060 )  


     PseudoPot. # 1 for Nb read from file:
     ../Nb.pz-spn-kjpaw_psl.1.0.0.UPF
     MD5 check sum: 38c2e04b3cc915696ca8dc9f46a23270
     Pseudo is Projector augmented-wave + core cor, Zval = 13.0
     Generated using "atomic" code by A. Dal Corso v.6.2.2
     Shape of augmentation charge: PSQ
     Using radial grid of 1227 points,  6 beta functions with: 
                l(1) =   0
                l(2) =   0
                l(3) =   1
                l(4) =   1
                l(5) =   2
                l(6) =   2
     Q(r) pseudized with 0 coefficients 


     PseudoPot. # 2 for S  read from file:
     ../S.pz-n-kjpaw_psl.0.1.UPF
     MD5 check sum: c0b1682311cf098e03f7841691d9a679
     Pseudo is Projector augmented-wave + core cor, Zval =  6.0
     Generated using "atomic" code by A. Dal Corso v.5.0.2 svn rev. 9415
     Shape of augmentation charge: PSQ
     Using radial grid of 1151 points,  4 beta functions with: 
                l(1) =   0
                l(2) =   0
                l(3) =   1
                l(4) =   1
     Q(r) pseudized with 0 coefficients 


     atomic species   valence    mass     pseudopotential
        Nb            13.00    92.90600     Nb( 1.00)
        S              6.00    32.06500     S ( 1.00)

      6 Sym. Ops. (no inversion) found


                                    s                        frac. trans.

      isym =  1     identity                                     

 cryst.   s( 1) = (     1          0          0      )
                  (     0          1          0      )
                  (     0          0          1      )

 cart.    s( 1) = (  1.0000000  0.0000000  0.0000000 )
                  (  0.0000000  1.0000000  0.0000000 )
                  (  0.0000000  0.0000000  1.0000000 )


      isym =  2     120 deg rotation - cryst. axis [0,0,1]       

 cryst.   s( 2) = (     0          1          0      )
                  (    -1         -1          0      )
                  (     0          0          1      )

 cart.    s( 2) = ( -0.5000000 -0.8660254  0.0000000 )
                  (  0.8660254 -0.5000000  0.0000000 )
                  (  0.0000000  0.0000000  1.0000000 )


      isym =  3     120 deg rotation - cryst. axis [0,0,-1]      

 cryst.   s( 3) = (    -1         -1          0      )
                  (     1          0          0      )
                  (     0          0          1      )

 cart.    s( 3) = ( -0.5000000  0.8660254  0.0000000 )
                  ( -0.8660254 -0.5000000  0.0000000 )
                  (  0.0000000  0.0000000  1.0000000 )


      isym =  4     inv. 180 deg rotation - cart. axis [1,0,0]   

 cryst.   s( 4) = (    -1          0          0      )
                  (     1          1          0      )
                  (     0          0          1      )

 cart.    s( 4) = ( -1.0000000  0.0000000  0.0000000 )
                  (  0.0000000  1.0000000  0.0000000 )
                  (  0.0000000  0.0000000  1.0000000 )


      isym =  5     inv. 180 deg rotation - cryst. axis [0,1,0]  

 cryst.   s( 5) = (     1          1          0      )
                  (     0         -1          0      )
                  (     0          0          1      )

 cart.    s( 5) = (  0.5000000  0.8660254  0.0000000 )
                  (  0.8660254 -0.5000000  0.0000000 )
                  (  0.0000000  0.0000000  1.0000000 )


      isym =  6     inv. 180 deg rotation - cryst. axis [1,1,0]  

 cryst.   s( 6) = (     0         -1          0      )
                  (    -1          0          0      )
                  (     0          0          1      )

 cart.    s( 6) = (  0.5000000 -0.8660254  0.0000000 )
                  ( -0.8660254 -0.5000000  0.0000000 )
                  (  0.0000000  0.0000000  1.0000000 )


     point group C_3v (3m)  
     there are  3 classes
     the character table:

       E     2C3   3s_v 
A_1    1.00  1.00  1.00
A_2    1.00  1.00 -1.00
E      2.00 -1.00  0.00

     the symmetry operations in each class and the name of the first element:

     E        1
          identity                                               
     2C3      2    3
          120 deg rotation - cryst. axis [0,0,1]                 
     3s_v     4    5    6
          inv. 180 deg rotation - cart. axis [1,0,0]             

   Cartesian axes

     site n.     atom                  positions (alat units)
         1           S   tau(   1) = (   0.0000000   0.5773503   1.4932768  )
         2           Nb  tau(   2) = (   0.0000000   0.0000000   1.0094618  )
         3           S   tau(   3) = (   0.0000000   0.5773503   0.5321904  )
         4           S   tau(   4) = (   0.5000000   0.2886751   2.5511139  )
         5           Nb  tau(   5) = (   0.0000000   0.0000000   3.0283905  )
         6           S   tau(   6) = (   0.5000000   0.2886751   3.5056620  )

   Crystallographic axes

     site n.     atom                  positions (cryst. coord.)
         1           S   tau(   1) = (  0.3333333  0.6666667  0.2449870  )
         2           Nb  tau(   2) = (  0.0000000  0.0000000  0.1656123  )
         3           S   tau(   3) = (  0.3333333  0.6666667  0.0873112  )
         4           S   tau(   4) = (  0.6666667  0.3333333  0.4185358  )
         5           Nb  tau(   5) = (  0.0000000  0.0000000  0.4968378  )
         6           S   tau(   6) = (  0.6666667  0.3333333  0.5751389  )

     number of k points=     8  Methfessel-Paxton smearing, width (Ry)=  0.0200
                       cart. coord. in units 2pi/alat
        k(    1) = (   0.0000000   0.0000000   0.0000000), wk =   0.0408163
        k(    2) = (   0.0000000   0.1649572   0.0000000), wk =   0.2448980
        k(    3) = (   0.0000000   0.3299144   0.0000000), wk =   0.2448980
        k(    4) = (   0.0000000   0.4948717   0.0000000), wk =   0.2448980
        k(    5) = (   0.1428571   0.2474358   0.0000000), wk =   0.2448980
        k(    6) = (   0.1428571   0.4123930   0.0000000), wk =   0.4897959
        k(    7) = (   0.1428571   0.5773503   0.0000000), wk =   0.2448980
        k(    8) = (   0.2857143   0.4948717   0.0000000), wk =   0.2448980

                       cryst. coord.
        k(    1) = (   0.0000000   0.0000000   0.0000000), wk =   0.0408163
        k(    2) = (   0.0000000   0.1428571   0.0000000), wk =   0.2448980
        k(    3) = (   0.0000000   0.2857143   0.0000000), wk =   0.2448980
        k(    4) = (   0.0000000   0.4285714   0.0000000), wk =   0.2448980
        k(    5) = (   0.1428571   0.1428571   0.0000000), wk =   0.2448980
        k(    6) = (   0.1428571   0.2857143   0.0000000), wk =   0.4897959
        k(    7) = (   0.1428571   0.4285714   0.0000000), wk =   0.2448980
        k(    8) = (   0.2857143   0.2857143   0.0000000), wk =   0.2448980

     Dense  grid:   170041 G-vectors     FFT dimensions: (  40,  40, 243)

     Smooth grid:    43005 G-vectors     FFT dimensions: (  25,  25, 160)

     Dynamical RAM for                 wfc:       2.46 MB

     Dynamical RAM for     wfc (w. buffer):      22.15 MB

     Dynamical RAM for           str. fact:       2.59 MB

     Dynamical RAM for           local pot:       0.00 MB

     Dynamical RAM for          nlocal pot:       2.79 MB

     Dynamical RAM for                qrad:       3.21 MB

     Dynamical RAM for          rho,v,vnew:       8.36 MB

     Dynamical RAM for               rhoin:       2.79 MB

     Dynamical RAM for            rho*nmix:      20.76 MB

     Dynamical RAM for           G-vectors:       5.03 MB

     Dynamical RAM for          h,s,v(r/c):       0.66 MB

     Dynamical RAM for          <psi|beta>:       0.06 MB

     Dynamical RAM for                 psi:       4.92 MB

     Dynamical RAM for                hpsi:       4.92 MB

     Dynamical RAM for                spsi:       4.92 MB

     Dynamical RAM for      wfcinit/wfcrot:       5.00 MB

     Dynamical RAM for           addusdens:     246.48 MB

     Estimated static dynamical RAM per process >      79.01 MB

     Estimated max dynamical RAM per process >     325.50 MB

     Estimated total dynamical RAM >     650.99 MB

     Initial potential from superposition of free atoms

     starting charge   49.99775, renormalised to   50.00000

     negative rho (up, down):  7.872E-05 0.000E+00
     Starting wfcs are   42 randomized atomic wfcs +   18 random wfcs
     Checking if some PAW data can be deallocated... 

     total cpu time spent up to now is        4.4 secs

     Self-consistent Calculation

     iteration #  1     ecut=    40.00 Ry     beta= 0.70
     Davidson diagonalization with overlap
     ethr =  1.00E-02,  avg # of iterations =  8.0

     Threshold (ethr) on eigenvalues was too large:
     Diagonalizing with lowered threshold

     Davidson diagonalization with overlap
     ethr =  5.31E-04,  avg # of iterations =  2.4

     negative rho (up, down):  1.253E-04 0.000E+00

     total cpu time spent up to now is       25.2 secs

     total energy              =    -907.81341344 Ry
     estimated scf accuracy    <       0.26640970 Ry

     iteration #  2     ecut=    40.00 Ry     beta= 0.70
     Davidson diagonalization with overlap
     ethr =  5.33E-04,  avg # of iterations =  4.9

     negative rho (up, down):  1.429E-04 0.000E+00

     total cpu time spent up to now is       34.5 secs

     total energy              =    -907.49556297 Ry
     estimated scf accuracy    <       2.90636299 Ry

     iteration #  3     ecut=    40.00 Ry     beta= 0.70
     Davidson diagonalization with overlap
     ethr =  5.33E-04,  avg # of iterations =  7.8

     negative rho (up, down):  1.221E-04 0.000E+00

     total cpu time spent up to now is       44.1 secs

     total energy              =    -906.75665025 Ry
     estimated scf accuracy    <      44.79946335 Ry

     iteration #  4     ecut=    40.00 Ry     beta= 0.70
     Davidson diagonalization with overlap
     ethr =  5.33E-04,  avg # of iterations =  7.0

     negative rho (up, down):  1.222E-04 0.000E+00

     total cpu time spent up to now is       53.4 secs

     total energy              =    -907.89492825 Ry
     estimated scf accuracy    <       0.16269953 Ry

     iteration #  5     ecut=    40.00 Ry     beta= 0.70
     Davidson diagonalization with overlap
     ethr =  3.25E-04,  avg # of iterations =  1.9

     negative rho (up, down):  1.246E-04 0.000E+00

     total cpu time spent up to now is       60.7 secs

     total energy              =    -907.90848327 Ry
     estimated scf accuracy    <       0.05698404 Ry

     iteration #  6     ecut=    40.00 Ry     beta= 0.70
     Davidson diagonalization with overlap
     ethr =  1.14E-04,  avg # of iterations =  2.5

     negative rho (up, down):  1.260E-04 0.000E+00

     total cpu time spent up to now is       68.2 secs

     total energy              =    -907.90754223 Ry
     estimated scf accuracy    <       0.05702606 Ry

     iteration #  7     ecut=    40.00 Ry     beta= 0.70
     Davidson diagonalization with overlap
     ethr =  1.14E-04,  avg # of iterations =  1.4

     negative rho (up, down):  1.280E-04 0.000E+00

     total cpu time spent up to now is       75.0 secs

     total energy              =    -907.91094265 Ry
     estimated scf accuracy    <       0.01013821 Ry

     iteration #  8     ecut=    40.00 Ry     beta= 0.70
     Davidson diagonalization with overlap
     ethr =  2.03E-05,  avg # of iterations =  4.9

     negative rho (up, down):  1.297E-04 0.000E+00

     total cpu time spent up to now is       82.9 secs

     total energy              =    -907.91164689 Ry
     estimated scf accuracy    <       0.00108042 Ry

     iteration #  9     ecut=    40.00 Ry     beta= 0.70
     Davidson diagonalization with overlap
     ethr =  2.16E-06,  avg # of iterations =  8.4

     negative rho (up, down):  1.314E-04 0.000E+00

     total cpu time spent up to now is       91.3 secs

     total energy              =    -907.91168674 Ry
     estimated scf accuracy    <       0.00321659 Ry

     iteration # 10     ecut=    40.00 Ry     beta= 0.70
     Davidson diagonalization with overlap
     ethr =  2.16E-06,  avg # of iterations =  1.0

     negative rho (up, down):  1.318E-04 0.000E+00

     total cpu time spent up to now is       97.8 secs

     total energy              =    -907.91184892 Ry
     estimated scf accuracy    <       0.00017314 Ry

     iteration # 11     ecut=    40.00 Ry     beta= 0.70
     Davidson diagonalization with overlap
     ethr =  3.46E-07,  avg # of iterations =  1.0

     negative rho (up, down):  1.319E-04 0.000E+00

     total cpu time spent up to now is      104.3 secs

     total energy              =    -907.91185329 Ry
     estimated scf accuracy    <       0.00000102 Ry

     iteration # 12     ecut=    40.00 Ry     beta= 0.70
     Davidson diagonalization with overlap
     ethr =  2.03E-09,  avg # of iterations =  1.9

     negative rho (up, down):  1.320E-04 0.000E+00

     total cpu time spent up to now is      111.7 secs

     total energy              =    -907.91185335 Ry
     estimated scf accuracy    <       0.00000150 Ry

     iteration # 13     ecut=    40.00 Ry     beta= 0.70
     Davidson diagonalization with overlap
     ethr =  2.03E-09,  avg # of iterations =  1.0

     negative rho (up, down):  1.320E-04 0.000E+00

     total cpu time spent up to now is      118.2 secs

     total energy              =    -907.91185338 Ry
     estimated scf accuracy    <       0.00000017 Ry

     iteration # 14     ecut=    40.00 Ry     beta= 0.70
     Davidson diagonalization with overlap
     ethr =  3.31E-10,  avg # of iterations =  1.0

     negative rho (up, down):  1.320E-04 0.000E+00

     total cpu time spent up to now is      124.7 secs

     total energy              =    -907.91185338 Ry
     estimated scf accuracy    <       0.00000001 Ry

     iteration # 15     ecut=    40.00 Ry     beta= 0.70
     Davidson diagonalization with overlap
     ethr =  2.83E-11,  avg # of iterations =  1.2

     negative rho (up, down):  1.320E-04 0.000E+00

     total cpu time spent up to now is      131.4 secs

     End of self-consistent calculation

          k = 0.0000 0.0000 0.0000 (  5429 PWs)   bands (ev):

   -51.4558 -51.4437 -27.6626 -27.6568 -27.4407 -27.4407 -27.4330 -27.4330
   -10.3537 -10.2887  -9.0620  -8.9620  -2.1162  -1.8123   0.9650   0.9650
     1.0170   1.0170   1.3924   2.0739   2.0739   2.1151   2.1151   2.1280
     3.8433   4.2772   6.3235   6.3235   6.3659   6.3659   6.4993   6.4993
     6.5325   6.5325   8.5486   8.7238   9.0057   9.6097  11.3536  11.5644
    11.6240  11.9812  13.8535  13.8535  13.8790  13.8790  14.0214  15.7616
    15.7992  15.7992  16.0483  16.0483  16.1262  17.1029  18.0527  18.5244
    18.6684  18.6685  18.8002  19.1706

     occupation numbers 
     1.0000   1.0000   1.0000   1.0000   1.0000   1.0000   1.0000   1.0000
     1.0000   1.0000   1.0000   1.0000   1.0000   1.0000   1.0000   1.0000
     1.0000   1.0000   1.0000   1.0000   1.0000   1.0000   1.0000   1.0000
    -0.0017  -0.0000  -0.0000  -0.0000  -0.0000  -0.0000  -0.0000  -0.0000
    -0.0000  -0.0000  -0.0000  -0.0000  -0.0000  -0.0000  -0.0000  -0.0000
    -0.0000  -0.0000  -0.0000  -0.0000  -0.0000  -0.0000  -0.0000  -0.0000
    -0.0000  -0.0000  -0.0000  -0.0000  -0.0000  -0.0000  -0.0000  -0.0000
    -0.0000  -0.0000  -0.0000  -0.0000

          k = 0.0000 0.1650 0.0000 (  5371 PWs)   bands (ev):

   -51.4473 -51.4352 -27.6443 -27.6383 -27.5275 -27.5205 -27.4599 -27.4524
   -10.0816 -10.0185  -8.9722  -8.8819  -1.8053  -1.5058   0.3282   0.3718
     0.7408   1.0536   1.2377   1.2849   1.6536   1.6994   2.2231   2.5625
     3.6607   3.8746   5.9545   6.1920   6.2476   6.2720   6.3288   6.3751
     6.8438   6.8823   9.1954   9.6992   9.9661  10.2864  11.7623  11.9605
    12.7529  12.8142  13.0074  13.2439  14.1758  14.3974  14.6531  14.7092
    14.7247  15.6871  15.7792  15.9202  16.1340  17.1019  17.1953  18.0477
    18.1017  18.4277  18.6557  19.0037

     occupation numbers 
     1.0000   1.0000   1.0000   1.0000   1.0000   1.0000   1.0000   1.0000
     1.0000   1.0000   1.0000   1.0000   1.0000   1.0000   1.0000   1.0000
     1.0000   1.0000   1.0000   1.0000   1.0000   1.0000   1.0000   1.0027
    -0.0168  -0.0010  -0.0000  -0.0000  -0.0000  -0.0000  -0.0000  -0.0000
    -0.0000  -0.0000  -0.0000  -0.0000  -0.0000  -0.0000  -0.0000  -0.0000
    -0.0000  -0.0000  -0.0000  -0.0000  -0.0000  -0.0000  -0.0000  -0.0000
    -0.0000  -0.0000  -0.0000  -0.0000  -0.0000  -0.0000  -0.0000  -0.0000
    -0.0000  -0.0000  -0.0000  -0.0000

          k = 0.0000 0.3299 0.0000 (  5373 PWs)   bands (ev):

   -51.4282 -51.4160 -27.7179 -27.7125 -27.6029 -27.5964 -27.5029 -27.4955
    -9.4110  -9.3563  -8.7520  -8.6868  -1.4817  -1.3105  -0.4196  -0.3384
    -0.2220  -0.0678   0.9483   0.9896   1.8393   1.8534   1.8886   2.2128
     2.9498   3.0330   5.9342   6.0845   6.1319   6.3119   6.7618   7.0148
     7.6320   7.7085  10.1354  10.5407  10.9058  11.4722  11.6336  12.0814
    12.1347  12.6747  13.0928  13.4375  14.2592  14.8780  15.0372  15.2738
    15.5879  15.6661  15.8662  16.4148  16.5973  16.7393  16.8616  17.3246
    17.4355  17.6758  17.9255  18.6101

     occupation numbers 
     1.0000   1.0000   1.0000   1.0000   1.0000   1.0000   1.0000   1.0000
     1.0000   1.0000   1.0000   1.0000   1.0000   1.0000   1.0000   1.0000
     1.0000   1.0000   1.0000   1.0000   1.0000   1.0000   1.0000   1.0000
     1.0063   0.9045  -0.0000  -0.0000  -0.0000  -0.0000  -0.0000  -0.0000
    -0.0000  -0.0000  -0.0000  -0.0000  -0.0000  -0.0000  -0.0000  -0.0000
    -0.0000  -0.0000  -0.0000  -0.0000  -0.0000  -0.0000  -0.0000  -0.0000
    -0.0000  -0.0000  -0.0000  -0.0000  -0.0000  -0.0000  -0.0000  -0.0000
    -0.0000  -0.0000  -0.0000  -0.0000

          k = 0.0000 0.4949 0.0000 (  5378 PWs)   bands (ev):

   -51.4128 -51.4005 -27.8662 -27.8620 -27.5695 -27.5626 -27.5369 -27.5299
    -8.7800  -8.7441  -8.5495  -8.5121  -1.9771  -1.9256  -1.0094  -0.8813
    -0.3910  -0.3528   0.5092   0.5526   1.5764   1.9224   2.2572   2.3079
     2.9349   3.0480   6.3093   6.3264   6.5809   6.7436   7.2524   7.5331
     8.0236   8.1405   9.6804  10.0881  10.9763  11.0303  11.2508  11.6657
    12.1334  12.8373  13.4005  13.4688  13.6829  14.1942  14.2377  14.5754
    15.2792  15.3593  16.2377  17.0195  17.3360  17.6228  17.8287  18.2339
    18.4147  18.7962  19.3228  19.5084

     occupation numbers 
     1.0000   1.0000   1.0000   1.0000   1.0000   1.0000   1.0000   1.0000
     1.0000   1.0000   1.0000   1.0000   1.0000   1.0000   1.0000   1.0000
     1.0000   1.0000   1.0000   1.0000   1.0000   1.0000   1.0000   1.0000
     1.0158   0.8764  -0.0000  -0.0000  -0.0000  -0.0000  -0.0000  -0.0000
    -0.0000  -0.0000  -0.0000  -0.0000  -0.0000  -0.0000  -0.0000  -0.0000
    -0.0000  -0.0000  -0.0000  -0.0000  -0.0000  -0.0000  -0.0000  -0.0000
    -0.0000  -0.0000  -0.0000  -0.0000  -0.0000  -0.0000  -0.0000  -0.0000
    -0.0000  -0.0000  -0.0000  -0.0000

          k = 0.1429 0.2474 0.0000 (  5362 PWs)   bands (ev):

   -51.4335 -51.4213 -27.6537 -27.6477 -27.6144 -27.6081 -27.5034 -27.4961
    -9.6076  -9.5496  -8.8147  -8.7417  -1.4085  -1.1574  -0.2914  -0.2585
     0.1964   0.3566   0.6923   0.7697   1.5243   1.5692   2.3397   2.5964
     3.2016   3.2337   5.6610   5.9097   6.2023   6.3282   6.3577   6.5499
     7.6426   7.7072   9.9136  10.4445  11.2730  11.8532  12.0826  12.3882
    12.5196  12.7382  13.0516  13.0567  14.1950  14.5272  14.5985  14.6889
    14.7966  15.3789  15.4825  16.0254  16.3180  16.4465  16.5658  17.7039
    17.8175  18.1286  18.2815  19.5509

     occupation numbers 
     1.0000   1.0000   1.0000   1.0000   1.0000   1.0000   1.0000   1.0000
     1.0000   1.0000   1.0000   1.0000   1.0000   1.0000   1.0000   1.0000
     1.0000   1.0000   1.0000   1.0000   1.0000   1.0000   1.0000   1.0044
     0.4551   0.3577  -0.0000  -0.0000  -0.0000  -0.0000  -0.0000  -0.0000
    -0.0000  -0.0000  -0.0000  -0.0000  -0.0000  -0.0000  -0.0000  -0.0000
    -0.0000  -0.0000  -0.0000  -0.0000  -0.0000  -0.0000  -0.0000  -0.0000
    -0.0000  -0.0000  -0.0000  -0.0000  -0.0000  -0.0000  -0.0000  -0.0000
    -0.0000  -0.0000  -0.0000  -0.0000

          k = 0.1429 0.4124 0.0000 (  5384 PWs)   bands (ev):

   -51.4163 -51.4039 -27.7983 -27.7935 -27.5770 -27.5702 -27.5664 -27.5596
    -8.9367  -8.8930  -8.5890  -8.5430  -1.5730  -1.4892  -0.8344  -0.7640
    -0.2722  -0.1988   0.3655   0.5012   1.3882   1.4317   1.9458   2.1616
     3.0241   3.0737   5.9099   6.1963   6.6041   6.6334   6.9327   7.1119
     8.0999   8.1791  10.6827  10.9663  11.1904  11.4330  11.6211  12.1964
    12.3862  13.1097  13.3378  13.5560  13.8832  14.1716  14.3043  15.1132
    15.2507  15.3345  15.6045  16.1159  16.3111  17.0893  17.3667  17.5754
    17.8115  18.2271  18.5009  18.9244

     occupation numbers 
     1.0000   1.0000   1.0000   1.0000   1.0000   1.0000   1.0000   1.0000
     1.0000   1.0000   1.0000   1.0000   1.0000   1.0000   1.0000   1.0000
     1.0000   1.0000   1.0000   1.0000   1.0000   1.0000   1.0000   1.0000
     0.9197   0.8213  -0.0000  -0.0000  -0.0000  -0.0000  -0.0000  -0.0000
    -0.0000  -0.0000  -0.0000  -0.0000  -0.0000  -0.0000  -0.0000  -0.0000
    -0.0000  -0.0000  -0.0000  -0.0000  -0.0000  -0.0000  -0.0000  -0.0000
    -0.0000  -0.0000  -0.0000  -0.0000  -0.0000  -0.0000  -0.0000  -0.0000
    -0.0000  -0.0000  -0.0000  -0.0000

          k = 0.1429 0.5774 0.0000 (  5380 PWs)   bands (ev):

   -51.4086 -51.3962 -27.8607 -27.8564 -27.5951 -27.5884 -27.5602 -27.5533
    -8.5948  -8.5673  -8.4725  -8.4435  -1.7811  -1.7543  -1.3201  -1.2494
    -0.3466  -0.3221   0.4595   0.5262   1.3326   1.4088   1.5981   1.8457
     3.3215   3.4031   6.2009   6.2361   6.9361   7.0694   7.5037   7.5596
     7.7743   8.0721   9.5604  10.2226  11.8896  12.0243  12.1273  12.3399
    12.3513  12.7077  12.7368  13.2028  13.7583  13.9661  14.3099  14.4365
    15.2310  15.5268  16.2742  16.5536  16.7505  17.2812  17.5144  17.6746
    18.0572  18.3870  18.9381  19.0389

     occupation numbers 
     1.0000   1.0000   1.0000   1.0000   1.0000   1.0000   1.0000   1.0000
     1.0000   1.0000   1.0000   1.0000   1.0000   1.0000   1.0000   1.0000
     1.0000   1.0000   1.0000   1.0000   1.0000   1.0000   1.0000   1.0000
     0.1334   0.0116  -0.0000  -0.0000  -0.0000  -0.0000  -0.0000  -0.0000
    -0.0000  -0.0000  -0.0000  -0.0000  -0.0000  -0.0000  -0.0000  -0.0000
    -0.0000  -0.0000  -0.0000  -0.0000  -0.0000  -0.0000  -0.0000  -0.0000
    -0.0000  -0.0000  -0.0000  -0.0000  -0.0000  -0.0000  -0.0000  -0.0000
    -0.0000  -0.0000  -0.0000  -0.0000

          k = 0.2857 0.4949 0.0000 (  5362 PWs)   bands (ev):

   -51.4067 -51.3943 -27.8049 -27.8004 -27.6759 -27.6697 -27.5562 -27.5492
    -8.5193  -8.4940  -8.4269  -8.4003  -1.5420  -1.5090  -1.2755  -1.2054
    -0.1884  -0.0682   0.1842   0.2575   0.5347   0.6693   1.6065   1.6999
     3.5575   3.5657   5.8188   5.8657   6.9653   7.0497   7.2563   7.4086
     8.4968   8.5388  10.4293  10.5598  11.2144  11.4876  12.0847  13.0229
    13.1042  13.3658  13.4762  14.3494  14.4462  14.7295  14.8211  15.0583
    15.2041  15.4263  15.6768  15.9277  16.0662  16.2229  16.6415  16.8121
    16.8866  17.5543  17.9275  18.6083

     occupation numbers 
     1.0000   1.0000   1.0000   1.0000   1.0000   1.0000   1.0000   1.0000
     1.0000   1.0000   1.0000   1.0000   1.0000   1.0000   1.0000   1.0000
     1.0000   1.0000   1.0000   1.0000   1.0000   1.0000   1.0000   1.0000
    -0.0331  -0.0321  -0.0000  -0.0000  -0.0000  -0.0000  -0.0000  -0.0000
    -0.0000  -0.0000  -0.0000  -0.0000  -0.0000  -0.0000  -0.0000  -0.0000
    -0.0000  -0.0000  -0.0000  -0.0000  -0.0000  -0.0000  -0.0000  -0.0000
    -0.0000  -0.0000  -0.0000  -0.0000  -0.0000  -0.0000  -0.0000  -0.0000
    -0.0000  -0.0000  -0.0000  -0.0000

     the Fermi energy is     3.1872 ev

!    total energy              =    -907.91185338 Ry

     total all-electron energy =    -18448.320875 Ry
     estimated scf accuracy    <          4.7E-10 Ry
     smearing contrib. (-TS)   =      -0.00172763 Ry
     internal energy E=F+TS    =    -907.91012576 Ry

     The total energy is F=E-TS. E is the sum of the following terms:
     one-electron contribution =   -1048.07001405 Ry
     hartree contribution      =     537.55680219 Ry
     xc contribution           =     -65.32285562 Ry
     ewald contribution        =     256.18108273 Ry
     one-center paw contrib.   =    -588.25514101 Ry
      -> PAW hartree energy AE =     100.86919856 Ry
      -> PAW hartree energy PS =    -100.35508604 Ry
      -> PAW xc energy AE      =    -324.79743214 Ry
      -> PAW xc energy PS      =      30.15656764 Ry
      -> total E_H with PAW    =     538.07091471 Ry
      -> total E_XC with PAW   =    -359.96372012 Ry

     convergence has been achieved in  15 iterations

     Writing output data file ./tmp/NbS2_bi.save/

     init_run     :      3.30s CPU      3.41s WALL (       1 calls)
     electrons    :    122.58s CPU    127.03s WALL (       1 calls)

     Called by init_run:
     wfcinit      :      1.90s CPU      1.91s WALL (       1 calls)
     wfcinit:atom :      0.01s CPU      0.01s WALL (       8 calls)
     wfcinit:wfcr :      1.84s CPU      1.85s WALL (       8 calls)
     potinit      :      0.33s CPU      0.33s WALL (       1 calls)
     hinit0       :      0.60s CPU      0.61s WALL (       1 calls)

     Called by electrons:
     c_bands      :     94.02s CPU     94.83s WALL (      16 calls)
     sum_band     :     20.39s CPU     22.42s WALL (      16 calls)
     v_of_rho     :      0.50s CPU      0.52s WALL (      16 calls)
     v_h          :      0.27s CPU      0.29s WALL (      16 calls)
     v_xc         :      0.23s CPU      0.24s WALL (      16 calls)
     newd         :      6.33s CPU      7.94s WALL (      16 calls)
     PAW_pot      :      0.94s CPU      0.94s WALL (      16 calls)
     mix_rho      :      0.57s CPU      0.57s WALL (      16 calls)

     Called by c_bands:
     init_us_2    :      0.39s CPU      0.40s WALL (     264 calls)
     cegterg      :     92.94s CPU     93.70s WALL (     128 calls)

     Called by sum_band:
     sum_band:wei :      0.01s CPU      0.01s WALL (      16 calls)
     sum_band:loo :     11.05s CPU     11.14s WALL (      16 calls)
     sum_band:buf :      0.17s CPU      0.17s WALL (     128 calls)
     sum_band:ini :      0.18s CPU      0.18s WALL (     128 calls)
     sum_band:cal :      2.78s CPU      2.78s WALL (     128 calls)
     sum_band:bec :      0.01s CPU      0.01s WALL (     128 calls)
     addusdens    :      8.93s CPU     10.85s WALL (      16 calls)
     addusd:skk   :      0.03s CPU      0.05s WALL (      32 calls)
     addusd:dgemm :      3.42s CPU      5.07s WALL (      32 calls)
     addusd:qvan2 :      4.94s CPU      4.95s WALL (      32 calls)

     Called by *egterg:
     cdiaghg      :      3.21s CPU      3.22s WALL (     569 calls)
     cegterg:over :     11.08s CPU     11.10s WALL (     449 calls)
     cegterg:upda :      5.98s CPU      6.00s WALL (     449 calls)
     cegterg:last :     16.46s CPU     16.51s WALL (     223 calls)
     h_psi        :     46.20s CPU     46.83s WALL (     585 calls)
     s_psi        :      5.86s CPU      5.88s WALL (     585 calls)
     g_psi        :      0.13s CPU      0.13s WALL (     449 calls)

     Called by h_psi:
     h_psi:calbec :      6.77s CPU      6.80s WALL (     585 calls)
     vloc_psi     :     33.48s CPU     34.05s WALL (     585 calls)
     add_vuspsi   :      5.60s CPU      5.61s WALL (     585 calls)

     General routines
     calbec       :      9.54s CPU      9.58s WALL (     713 calls)
     fft          :      1.25s CPU      1.30s WALL (      95 calls)
     ffts         :      0.06s CPU      0.06s WALL (      32 calls)
     fftw         :     36.52s CPU     37.12s WALL (   43818 calls)
     interpolate  :      0.27s CPU      0.28s WALL (      16 calls)

     Parallel routines
     fft_scatt_xy :      4.17s CPU      4.23s WALL (   43945 calls)
     fft_scatt_yz :      3.04s CPU      3.13s WALL (   43945 calls)

     PAW routines
     PAW_pot      :      0.94s CPU      0.94s WALL (      16 calls)
     PAW_symme    :      0.00s CPU      0.00s WALL (      32 calls)

     PWSCF        :   2m 6.95s CPU   2m11.80s WALL


   This run was terminated on:  16:41:57  14Jun2021            

=------------------------------------------------------------------------------=
   JOB DONE.
=------------------------------------------------------------------------------=
