
     Program PWSCF v.6.6 starts on 14Jun2021 at 16:54:59 

     This program is part of the open-source Quantum ESPRESSO suite
     for quantum simulation of materials; please cite
         "P. Giannozzi et al., J. Phys.:Condens. Matter 21 395502 (2009);
         "P. Giannozzi et al., J. Phys.:Condens. Matter 29 465901 (2017);
          URL http://www.quantum-espresso.org", 
     in publications or presentations arising from this work. More details at
     http://www.quantum-espresso.org/quote

     Parallel version (MPI), running on     2 processors

     MPI processes distributed on     1 nodes
     R & G space division:  proc/nbgrp/npool/nimage =       2
     Fft bands division:     nmany     =       1
     Waiting for input...
     Reading input from standard input

     Current dimensions of program PWSCF are:
     Max number of different atomic species (ntypx) = 10
     Max number of k-points (npk) =  40000
     Max angular momentum in pseudopotentials (lmaxx) =  3
     file Nb.pz-spn-kjpaw_psl.1.0.0.UPF: wavefunction(s)  4S 4P 4D renormalized
     file S.pz-n-kjpaw_psl.0.1.UPF: wavefunction(s)  3P renormalized

     Subspace diagonalization in iterative solution of the eigenvalue problem:
     a serial algorithm will be used


     Parallelization info
     --------------------
     sticks:   dense  smooth     PW     G-vecs:    dense   smooth      PW
     Min         534     210     60                85019    21488    3582
     Max         535     211     61                85022    21517    3607
     Sum        1069     421    121               170041    43005    7189



     bravais-lattice index     =            4
     lattice parameter (alat)  =       6.2006  a.u.
     unit-cell volume          =    1258.4114 (a.u.)^3
     number of atoms/cell      =            6
     number of atomic types    =            2
     number of electrons       =        50.00
     number of Kohn-Sham states=           60
     kinetic-energy cutoff     =      40.0000  Ry
     charge density cutoff     =     400.0000  Ry
     convergence threshold     =      1.0E-08
     mixing beta               =       0.7000
     number of iterations used =            8  plain     mixing
     Exchange-correlation= SLA PZ NOGX NOGC
                           (   1   1   0   0   0   0   0)

     celldm(1)=   6.200569  celldm(2)=   0.000000  celldm(3)=   6.095331
     celldm(4)=   0.000000  celldm(5)=   0.000000  celldm(6)=   0.000000

     crystal axes: (cart. coord. in units of alat)
               a(1) = (   1.000000   0.000000   0.000000 )  
               a(2) = (  -0.500000   0.866025   0.000000 )  
               a(3) = (   0.000000   0.000000   6.095331 )  

     reciprocal axes: (cart. coord. in units 2 pi/alat)
               b(1) = (  1.000000  0.577350 -0.000000 )  
               b(2) = (  0.000000  1.154701  0.000000 )  
               b(3) = (  0.000000 -0.000000  0.164060 )  


     PseudoPot. # 1 for Nb read from file:
     ../Nb.pz-spn-kjpaw_psl.1.0.0.UPF
     MD5 check sum: 38c2e04b3cc915696ca8dc9f46a23270
     Pseudo is Projector augmented-wave + core cor, Zval = 13.0
     Generated using "atomic" code by A. Dal Corso v.6.2.2
     Shape of augmentation charge: PSQ
     Using radial grid of 1227 points,  6 beta functions with: 
                l(1) =   0
                l(2) =   0
                l(3) =   1
                l(4) =   1
                l(5) =   2
                l(6) =   2
     Q(r) pseudized with 0 coefficients 


     PseudoPot. # 2 for S  read from file:
     ../S.pz-n-kjpaw_psl.0.1.UPF
     MD5 check sum: c0b1682311cf098e03f7841691d9a679
     Pseudo is Projector augmented-wave + core cor, Zval =  6.0
     Generated using "atomic" code by A. Dal Corso v.5.0.2 svn rev. 9415
     Shape of augmentation charge: PSQ
     Using radial grid of 1151 points,  4 beta functions with: 
                l(1) =   0
                l(2) =   0
                l(3) =   1
                l(4) =   1
     Q(r) pseudized with 0 coefficients 


     atomic species   valence    mass     pseudopotential
        Nb            13.00    92.90600     Nb( 1.00)
        S              6.00    32.06500     S ( 1.00)

      6 Sym. Ops. (no inversion) found


                                    s                        frac. trans.

      isym =  1     identity                                     

 cryst.   s( 1) = (     1          0          0      )
                  (     0          1          0      )
                  (     0          0          1      )

 cart.    s( 1) = (  1.0000000  0.0000000  0.0000000 )
                  (  0.0000000  1.0000000  0.0000000 )
                  (  0.0000000  0.0000000  1.0000000 )


      isym =  2     120 deg rotation - cryst. axis [0,0,1]       

 cryst.   s( 2) = (     0          1          0      )
                  (    -1         -1          0      )
                  (     0          0          1      )

 cart.    s( 2) = ( -0.5000000 -0.8660254  0.0000000 )
                  (  0.8660254 -0.5000000  0.0000000 )
                  (  0.0000000  0.0000000  1.0000000 )


      isym =  3     120 deg rotation - cryst. axis [0,0,-1]      

 cryst.   s( 3) = (    -1         -1          0      )
                  (     1          0          0      )
                  (     0          0          1      )

 cart.    s( 3) = ( -0.5000000  0.8660254  0.0000000 )
                  ( -0.8660254 -0.5000000  0.0000000 )
                  (  0.0000000  0.0000000  1.0000000 )


      isym =  4     inv. 180 deg rotation - cart. axis [1,0,0]   

 cryst.   s( 4) = (    -1          0          0      )
                  (     1          1          0      )
                  (     0          0          1      )

 cart.    s( 4) = ( -1.0000000  0.0000000  0.0000000 )
                  (  0.0000000  1.0000000  0.0000000 )
                  (  0.0000000  0.0000000  1.0000000 )


      isym =  5     inv. 180 deg rotation - cryst. axis [0,1,0]  

 cryst.   s( 5) = (     1          1          0      )
                  (     0         -1          0      )
                  (     0          0          1      )

 cart.    s( 5) = (  0.5000000  0.8660254  0.0000000 )
                  (  0.8660254 -0.5000000  0.0000000 )
                  (  0.0000000  0.0000000  1.0000000 )


      isym =  6     inv. 180 deg rotation - cryst. axis [1,1,0]  

 cryst.   s( 6) = (     0         -1          0      )
                  (    -1          0          0      )
                  (     0          0          1      )

 cart.    s( 6) = (  0.5000000 -0.8660254  0.0000000 )
                  ( -0.8660254 -0.5000000  0.0000000 )
                  (  0.0000000  0.0000000  1.0000000 )


     point group C_3v (3m)  
     there are  3 classes
     the character table:

       E     2C3   3s_v 
A_1    1.00  1.00  1.00
A_2    1.00  1.00 -1.00
E      2.00 -1.00  0.00

     the symmetry operations in each class and the name of the first element:

     E        1
          identity                                               
     2C3      2    3
          120 deg rotation - cryst. axis [0,0,1]                 
     3s_v     4    5    6
          inv. 180 deg rotation - cart. axis [1,0,0]             

   Cartesian axes

     site n.     atom                  positions (alat units)
         1           S   tau(   1) = (   0.0000000   0.5773503   1.4932768  )
         2           Nb  tau(   2) = (   0.0000000   0.0000000   1.0094618  )
         3           S   tau(   3) = (   0.0000000   0.5773503   0.5321904  )
         4           S   tau(   4) = (   0.5000000   0.2886751   2.5511139  )
         5           Nb  tau(   5) = (   0.0000000   0.0000000   3.0283905  )
         6           S   tau(   6) = (   0.5000000   0.2886751   3.5056620  )

   Crystallographic axes

     site n.     atom                  positions (cryst. coord.)
         1           S   tau(   1) = (  0.3333333  0.6666667  0.2449870  )
         2           Nb  tau(   2) = (  0.0000000  0.0000000  0.1656123  )
         3           S   tau(   3) = (  0.3333333  0.6666667  0.0873112  )
         4           S   tau(   4) = (  0.6666667  0.3333333  0.4185358  )
         5           Nb  tau(   5) = (  0.0000000  0.0000000  0.4968378  )
         6           S   tau(   6) = (  0.6666667  0.3333333  0.5751389  )

     number of k points=    19  Methfessel-Paxton smearing, width (Ry)=  0.0200
                       cart. coord. in units 2pi/alat
        k(    1) = (   0.0000000   0.0000000   0.0000000), wk =   0.0138889
        k(    2) = (   0.0000000   0.0962250   0.0000000), wk =   0.0833333
        k(    3) = (   0.0000000   0.1924501   0.0000000), wk =   0.0833333
        k(    4) = (   0.0000000   0.2886751   0.0000000), wk =   0.0833333
        k(    5) = (   0.0000000   0.3849002   0.0000000), wk =   0.0833333
        k(    6) = (   0.0000000   0.4811252   0.0000000), wk =   0.0833333
        k(    7) = (   0.0000000  -0.5773503   0.0000000), wk =   0.0416667
        k(    8) = (   0.0833333   0.1443376   0.0000000), wk =   0.0833333
        k(    9) = (   0.0833333   0.2405626   0.0000000), wk =   0.1666667
        k(   10) = (   0.0833333   0.3367877   0.0000000), wk =   0.1666667
        k(   11) = (   0.0833333   0.4330127   0.0000000), wk =   0.1666667
        k(   12) = (   0.0833333   0.5292377   0.0000000), wk =   0.1666667
        k(   13) = (   0.1666667   0.2886751   0.0000000), wk =   0.0833333
        k(   14) = (   0.1666667   0.3849002   0.0000000), wk =   0.1666667
        k(   15) = (   0.1666667   0.4811252   0.0000000), wk =   0.1666667
        k(   16) = (   0.1666667   0.5773503   0.0000000), wk =   0.0833333
        k(   17) = (   0.2500000   0.4330127   0.0000000), wk =   0.0833333
        k(   18) = (   0.2500000   0.5292377   0.0000000), wk =   0.1666667
        k(   19) = (   0.3333333   0.5773503   0.0000000), wk =   0.0277778

                       cryst. coord.
        k(    1) = (   0.0000000   0.0000000   0.0000000), wk =   0.0138889
        k(    2) = (   0.0000000   0.0833333   0.0000000), wk =   0.0833333
        k(    3) = (   0.0000000   0.1666667   0.0000000), wk =   0.0833333
        k(    4) = (   0.0000000   0.2500000   0.0000000), wk =   0.0833333
        k(    5) = (   0.0000000   0.3333333   0.0000000), wk =   0.0833333
        k(    6) = (   0.0000000   0.4166667   0.0000000), wk =   0.0833333
        k(    7) = (   0.0000000  -0.5000000   0.0000000), wk =   0.0416667
        k(    8) = (   0.0833333   0.0833333   0.0000000), wk =   0.0833333
        k(    9) = (   0.0833333   0.1666667   0.0000000), wk =   0.1666667
        k(   10) = (   0.0833333   0.2500000   0.0000000), wk =   0.1666667
        k(   11) = (   0.0833333   0.3333333   0.0000000), wk =   0.1666667
        k(   12) = (   0.0833333   0.4166667   0.0000000), wk =   0.1666667
        k(   13) = (   0.1666667   0.1666667   0.0000000), wk =   0.0833333
        k(   14) = (   0.1666667   0.2500000   0.0000000), wk =   0.1666667
        k(   15) = (   0.1666667   0.3333333   0.0000000), wk =   0.1666667
        k(   16) = (   0.1666667   0.4166667   0.0000000), wk =   0.0833333
        k(   17) = (   0.2500000   0.2500000   0.0000000), wk =   0.0833333
        k(   18) = (   0.2500000   0.3333333   0.0000000), wk =   0.1666667
        k(   19) = (   0.3333333   0.3333333   0.0000000), wk =   0.0277778

     Dense  grid:   170041 G-vectors     FFT dimensions: (  40,  40, 243)

     Smooth grid:    43005 G-vectors     FFT dimensions: (  25,  25, 160)

     Dynamical RAM for                 wfc:       2.46 MB

     Dynamical RAM for     wfc (w. buffer):      49.22 MB

     Dynamical RAM for           str. fact:       2.59 MB

     Dynamical RAM for           local pot:       0.00 MB

     Dynamical RAM for          nlocal pot:       2.79 MB

     Dynamical RAM for                qrad:       3.21 MB

     Dynamical RAM for          rho,v,vnew:       8.36 MB

     Dynamical RAM for               rhoin:       2.79 MB

     Dynamical RAM for            rho*nmix:      20.76 MB

     Dynamical RAM for           G-vectors:       5.03 MB

     Dynamical RAM for          h,s,v(r/c):       0.66 MB

     Dynamical RAM for          <psi|beta>:       0.06 MB

     Dynamical RAM for                 psi:       4.92 MB

     Dynamical RAM for                hpsi:       4.92 MB

     Dynamical RAM for                spsi:       4.92 MB

     Dynamical RAM for      wfcinit/wfcrot:       5.00 MB

     Dynamical RAM for           addusdens:     246.48 MB

     Estimated static dynamical RAM per process >     106.08 MB

     Estimated max dynamical RAM per process >     352.57 MB

     Estimated total dynamical RAM >     705.13 MB

     Initial potential from superposition of free atoms

     starting charge   49.99775, renormalised to   50.00000

     negative rho (up, down):  7.872E-05 0.000E+00
     Starting wfcs are   42 randomized atomic wfcs +   18 random wfcs
     Checking if some PAW data can be deallocated... 

     total cpu time spent up to now is        7.2 secs

     Self-consistent Calculation

     iteration #  1     ecut=    40.00 Ry     beta= 0.70
     Davidson diagonalization with overlap
     ethr =  1.00E-02,  avg # of iterations =  7.7

     Threshold (ethr) on eigenvalues was too large:
     Diagonalizing with lowered threshold

     Davidson diagonalization with overlap
     ethr =  5.36E-04,  avg # of iterations =  2.1

     negative rho (up, down):  1.253E-04 0.000E+00

     total cpu time spent up to now is       54.0 secs

     total energy              =    -907.81126476 Ry
     estimated scf accuracy    <       0.26893072 Ry

     iteration #  2     ecut=    40.00 Ry     beta= 0.70
     Davidson diagonalization with overlap
     ethr =  5.38E-04,  avg # of iterations =  6.2

     negative rho (up, down):  1.426E-04 0.000E+00

     total cpu time spent up to now is       74.9 secs

     total energy              =    -907.49691825 Ry
     estimated scf accuracy    <       2.98957903 Ry

     iteration #  3     ecut=    40.00 Ry     beta= 0.70
     Davidson diagonalization with overlap
     ethr =  5.38E-04,  avg # of iterations =  8.2

     negative rho (up, down):  1.216E-04 0.000E+00

     total cpu time spent up to now is       95.9 secs

     total energy              =    -906.81807369 Ry
     estimated scf accuracy    <      40.39753228 Ry

     iteration #  4     ecut=    40.00 Ry     beta= 0.70
     Davidson diagonalization with overlap
     ethr =  5.38E-04,  avg # of iterations =  6.9

     negative rho (up, down):  1.218E-04 0.000E+00

     total cpu time spent up to now is      116.2 secs

     total energy              =    -907.89531171 Ry
     estimated scf accuracy    <       0.13790381 Ry

     iteration #  5     ecut=    40.00 Ry     beta= 0.70
     Davidson diagonalization with overlap
     ethr =  2.76E-04,  avg # of iterations =  2.4

     negative rho (up, down):  1.242E-04 0.000E+00

     total cpu time spent up to now is      132.4 secs

     total energy              =    -907.90751929 Ry
     estimated scf accuracy    <       0.10681720 Ry

     iteration #  6     ecut=    40.00 Ry     beta= 0.70
     Davidson diagonalization with overlap
     ethr =  2.14E-04,  avg # of iterations =  1.5

     negative rho (up, down):  1.257E-04 0.000E+00

     total cpu time spent up to now is      146.7 secs

     total energy              =    -907.90782650 Ry
     estimated scf accuracy    <       0.05827567 Ry

     iteration #  7     ecut=    40.00 Ry     beta= 0.70
     Davidson diagonalization with overlap
     ethr =  1.17E-04,  avg # of iterations =  2.2

     negative rho (up, down):  1.277E-04 0.000E+00

     total cpu time spent up to now is      162.3 secs

     total energy              =    -907.91052482 Ry
     estimated scf accuracy    <       0.01302293 Ry

     iteration #  8     ecut=    40.00 Ry     beta= 0.70
     Davidson diagonalization with overlap
     ethr =  2.60E-05,  avg # of iterations =  5.3

     negative rho (up, down):  1.292E-04 0.000E+00

     total cpu time spent up to now is      178.5 secs

     total energy              =    -907.91121116 Ry
     estimated scf accuracy    <       0.00160379 Ry

     iteration #  9     ecut=    40.00 Ry     beta= 0.70
     Davidson diagonalization with overlap
     ethr =  3.21E-06,  avg # of iterations =  7.6

     negative rho (up, down):  1.316E-04 0.000E+00

     total cpu time spent up to now is      196.3 secs

     total energy              =    -907.91123082 Ry
     estimated scf accuracy    <       0.00404393 Ry

     iteration # 10     ecut=    40.00 Ry     beta= 0.70
     Davidson diagonalization with overlap
     ethr =  3.21E-06,  avg # of iterations =  1.0

     negative rho (up, down):  1.317E-04 0.000E+00

     total cpu time spent up to now is      210.0 secs

     total energy              =    -907.91142915 Ry
     estimated scf accuracy    <       0.00196834 Ry

     iteration # 11     ecut=    40.00 Ry     beta= 0.70
     Davidson diagonalization with overlap
     ethr =  3.21E-06,  avg # of iterations =  1.0

     negative rho (up, down):  1.320E-04 0.000E+00

     total cpu time spent up to now is      223.7 secs

     total energy              =    -907.91146634 Ry
     estimated scf accuracy    <       0.00010499 Ry

     iteration # 12     ecut=    40.00 Ry     beta= 0.70
     Davidson diagonalization with overlap
     ethr =  2.10E-07,  avg # of iterations =  1.0

     negative rho (up, down):  1.320E-04 0.000E+00

     total cpu time spent up to now is      237.4 secs

     total energy              =    -907.91146794 Ry
     estimated scf accuracy    <       0.00000115 Ry

     iteration # 13     ecut=    40.00 Ry     beta= 0.70
     Davidson diagonalization with overlap
     ethr =  2.29E-09,  avg # of iterations =  1.0

     negative rho (up, down):  1.321E-04 0.000E+00

     total cpu time spent up to now is      251.1 secs

     total energy              =    -907.91146797 Ry
     estimated scf accuracy    <       0.00000002 Ry

     iteration # 14     ecut=    40.00 Ry     beta= 0.70
     Davidson diagonalization with overlap
     ethr =  4.03E-11,  avg # of iterations =  2.5

     negative rho (up, down):  1.321E-04 0.000E+00

     total cpu time spent up to now is      267.8 secs

     End of self-consistent calculation

          k = 0.0000 0.0000 0.0000 (  5429 PWs)   bands (ev):

   -51.4502 -51.4366 -27.6632 -27.6563 -27.4322 -27.4322 -27.4228 -27.4228
   -10.3512 -10.2864  -9.0612  -8.9611  -2.1130  -1.8087   0.9725   0.9725
     1.0231   1.0231   1.3930   2.0766   2.0766   2.1167   2.1167   2.1291
     3.8432   4.2767   6.3256   6.3256   6.3686   6.3686   6.5030   6.5030
     6.5371   6.5371   8.5509   8.7286   9.0066   9.6094  11.3531  11.5624
    11.6236  11.9811  13.8542  13.8542  13.8795  13.8795  14.0207  15.7613
    15.7995  15.7995  16.0489  16.0489  16.1262  17.1020  18.0535  18.5255
    18.6686  18.6686  18.8018  19.1718

     occupation numbers 
     1.0000   1.0000   1.0000   1.0000   1.0000   1.0000   1.0000   1.0000
     1.0000   1.0000   1.0000   1.0000   1.0000   1.0000   1.0000   1.0000
     1.0000   1.0000   1.0000   1.0000   1.0000   1.0000   1.0000   1.0000
    -0.0024  -0.0000  -0.0000  -0.0000  -0.0000  -0.0000  -0.0000  -0.0000
    -0.0000  -0.0000  -0.0000  -0.0000  -0.0000  -0.0000  -0.0000  -0.0000
    -0.0000  -0.0000  -0.0000  -0.0000  -0.0000  -0.0000  -0.0000  -0.0000
    -0.0000  -0.0000  -0.0000  -0.0000  -0.0000  -0.0000  -0.0000  -0.0000
    -0.0000  -0.0000  -0.0000  -0.0000

          k = 0.0000 0.0962 0.0000 (  5401 PWs)   bands (ev):

   -51.4472 -51.4336 -27.6566 -27.6497 -27.4632 -27.4541 -27.4390 -27.4297
   -10.2558 -10.1916  -9.0297  -8.9330  -1.9996  -1.6960   0.7237   0.7712
     1.0692   1.1105   1.1186   1.5245   1.9153   1.9566   2.2093   2.4979
     3.7980   4.1440   6.2276   6.2799   6.3010   6.3834   6.3946   6.4564
     6.5433   6.5678   8.8708   9.1627   9.3091   9.7996  11.5122  11.8018
    12.0846  12.2662  13.4182  13.6190  14.1396  14.1847  14.2251  15.0105
    15.2956  15.7693  15.8697  16.0647  16.1053  17.1314  17.7824  18.3961
    18.6412  18.8036  19.0333  19.0531

     occupation numbers 
     1.0000   1.0000   1.0000   1.0000   1.0000   1.0000   1.0000   1.0000
     1.0000   1.0000   1.0000   1.0000   1.0000   1.0000   1.0000   1.0000
     1.0000   1.0000   1.0000   1.0000   1.0000   1.0000   1.0000   1.0007
    -0.0046  -0.0000  -0.0000  -0.0000  -0.0000  -0.0000  -0.0000  -0.0000
    -0.0000  -0.0000  -0.0000  -0.0000  -0.0000  -0.0000  -0.0000  -0.0000
    -0.0000  -0.0000  -0.0000  -0.0000  -0.0000  -0.0000  -0.0000  -0.0000
    -0.0000  -0.0000  -0.0000  -0.0000  -0.0000  -0.0000  -0.0000  -0.0000
    -0.0000  -0.0000  -0.0000  -0.0000

          k = 0.0000 0.1925 0.0000 (  5369 PWs)   bands (ev):

   -51.4389 -51.4253 -27.6389 -27.6317 -27.5471 -27.5387 -27.4577 -27.4485
    -9.9868  -9.9247  -8.9408  -8.8537  -1.7087  -1.4128   0.1640   0.2035
     0.5819   0.8628   1.3338   1.3745   1.5372   1.5869   2.1911   2.5391
     3.5679   3.7336   5.8754   6.1714   6.2243   6.2812   6.2822   6.4395
     6.9866   7.0301   9.3309   9.8679  10.2679  10.6046  11.8877  12.0037
    12.8097  12.9434  13.0156  13.0890  14.0683  14.2914  14.7202  14.9107
    14.9960  15.5200  15.8112  15.8223  16.1912  16.9131  17.0938  17.8324
    17.8523  18.3289  18.4158  18.9584

     occupation numbers 
     1.0000   1.0000   1.0000   1.0000   1.0000   1.0000   1.0000   1.0000
     1.0000   1.0000   1.0000   1.0000   1.0000   1.0000   1.0000   1.0000
     1.0000   1.0000   1.0000   1.0000   1.0000   1.0000   1.0000   1.0014
    -0.0343  -0.0101  -0.0000  -0.0000  -0.0000  -0.0000  -0.0000  -0.0000
    -0.0000  -0.0000  -0.0000  -0.0000  -0.0000  -0.0000  -0.0000  -0.0000
    -0.0000  -0.0000  -0.0000  -0.0000  -0.0000  -0.0000  -0.0000  -0.0000
    -0.0000  -0.0000  -0.0000  -0.0000  -0.0000  -0.0000  -0.0000  -0.0000
    -0.0000  -0.0000  -0.0000  -0.0000

          k = 0.0000 0.2887 0.0000 (  5369 PWs)   bands (ev):

   -51.4277 -51.4140 -27.6599 -27.6524 -27.6144 -27.6070 -27.4830 -27.4740
    -9.5946  -9.5371  -8.8115  -8.7391  -1.4600  -1.2273  -0.3174  -0.2774
     0.0052   0.1959   1.1150   1.1539   1.6912   1.7413   1.9639   2.3234
     3.1216   3.2095   5.8429   6.0984   6.1517   6.2326   6.5844   6.8234
     7.4631   7.5286   9.8830  10.3586  10.8729  11.5683  11.8467  12.3054
    12.4096  12.5209  12.9547  13.1254  14.2721  14.8094  14.9667  15.2102
    15.5400  15.6998  15.8679  16.1386  16.5351  16.5726  16.6869  17.1236
    17.3802  17.6499  17.9830  19.0788

     occupation numbers 
     1.0000   1.0000   1.0000   1.0000   1.0000   1.0000   1.0000   1.0000
     1.0000   1.0000   1.0000   1.0000   1.0000   1.0000   1.0000   1.0000
     1.0000   1.0000   1.0000   1.0000   1.0000   1.0000   1.0000   1.0000
     0.7585   0.5003  -0.0000  -0.0000  -0.0000  -0.0000  -0.0000  -0.0000
    -0.0000  -0.0000  -0.0000  -0.0000  -0.0000  -0.0000  -0.0000  -0.0000
    -0.0000  -0.0000  -0.0000  -0.0000  -0.0000  -0.0000  -0.0000  -0.0000
    -0.0000  -0.0000  -0.0000  -0.0000  -0.0000  -0.0000  -0.0000  -0.0000
    -0.0000  -0.0000  -0.0000  -0.0000

          k = 0.0000 0.3849 0.0000 (  5379 PWs)   bands (ev):

   -51.4164 -51.4026 -27.7704 -27.7639 -27.5899 -27.5822 -27.5083 -27.4994
    -9.1636  -9.1144  -8.6711  -8.6162  -1.6262  -1.5199  -0.5925  -0.4482
    -0.3490  -0.2739   0.7616   0.8031   1.7270   2.0258   2.0731   2.0835
     2.8326   2.9207   6.1243   6.1325   6.1708   6.4534   6.9930   7.2508
     7.8158   7.9085  10.4020  10.7258  10.8520  11.0217  11.2986  11.8562
    11.9451  12.7993  13.1349  13.8861  14.1110  14.8249  15.0224  15.1162
    15.3773  15.4828  16.1499  16.7576  16.8126  17.0672  17.3550  17.4372
    17.9843  18.0729  18.1490  18.1795

     occupation numbers 
     1.0000   1.0000   1.0000   1.0000   1.0000   1.0000   1.0000   1.0000
     1.0000   1.0000   1.0000   1.0000   1.0000   1.0000   1.0000   1.0000
     1.0000   1.0000   1.0000   1.0000   1.0000   1.0000   1.0000   1.0000
     1.0323   1.0304  -0.0000  -0.0000  -0.0000  -0.0000  -0.0000  -0.0000
    -0.0000  -0.0000  -0.0000  -0.0000  -0.0000  -0.0000  -0.0000  -0.0000
    -0.0000  -0.0000  -0.0000  -0.0000  -0.0000  -0.0000  -0.0000  -0.0000
    -0.0000  -0.0000  -0.0000  -0.0000  -0.0000  -0.0000  -0.0000  -0.0000
    -0.0000  -0.0000  -0.0000  -0.0000

          k = 0.0000 0.4811 0.0000 (  5368 PWs)   bands (ev):

   -51.4081 -51.3942 -27.8500 -27.8441 -27.5718 -27.5639 -27.5266 -27.5179
    -8.8128  -8.7755  -8.5588  -8.5202  -1.9403  -1.8856  -0.9712  -0.8413
    -0.3803  -0.3384   0.5327   0.5751   1.5881   1.9355   2.2411   2.2907
     2.9126   3.0241   6.2952   6.3147   6.5279   6.7155   7.2394   7.5144
     8.0092   8.1244   9.8112  10.1730  10.9629  11.0088  11.2182  11.6667
    12.0814  12.8576  13.3478  13.5400  13.7538  14.2665  14.2854  14.6680
    15.2648  15.4822  16.2534  17.0434  17.2418  17.5372  17.7640  18.1810
    18.2944  18.7301  19.1894  19.3351

     occupation numbers 
     1.0000   1.0000   1.0000   1.0000   1.0000   1.0000   1.0000   1.0000
     1.0000   1.0000   1.0000   1.0000   1.0000   1.0000   1.0000   1.0000
     1.0000   1.0000   1.0000   1.0000   1.0000   1.0000   1.0000   1.0000
     1.0322   0.9533  -0.0000  -0.0000  -0.0000  -0.0000  -0.0000  -0.0000
    -0.0000  -0.0000  -0.0000  -0.0000  -0.0000  -0.0000  -0.0000  -0.0000
    -0.0000  -0.0000  -0.0000  -0.0000  -0.0000  -0.0000  -0.0000  -0.0000
    -0.0000  -0.0000  -0.0000  -0.0000  -0.0000  -0.0000  -0.0000  -0.0000
    -0.0000  -0.0000  -0.0000  -0.0000

          k = 0.0000-0.5774 0.0000 (  5356 PWs)   bands (ev):

   -51.4050 -51.3912 -27.8789 -27.8732 -27.5652 -27.5572 -27.5333 -27.5246
    -8.6741  -8.6444  -8.5148  -8.4837  -2.0715  -2.0318  -1.1152  -0.9909
    -0.4180  -0.3912   0.4539   0.4966   1.5466   1.8889   2.3109   2.3625
     3.0375   3.1489   6.3934   6.4043   6.8035   6.8256   7.2818   7.5903
     8.0680   8.1918   9.2808   9.8089  11.0360  11.0818  11.4859  11.5719
    12.5083  12.5656  13.1758  13.4006  13.9205  13.9443  14.0406  14.3233
    14.9984  15.0472  16.4066  16.8388  17.6638  17.7160  17.8907  18.6577
    18.8243  19.0706  19.7288  19.9996

     occupation numbers 
     1.0000   1.0000   1.0000   1.0000   1.0000   1.0000   1.0000   1.0000
     1.0000   1.0000   1.0000   1.0000   1.0000   1.0000   1.0000   1.0000
     1.0000   1.0000   1.0000   1.0000   1.0000   1.0000   1.0000   1.0000
     0.9340   0.6836  -0.0000  -0.0000  -0.0000  -0.0000  -0.0000  -0.0000
    -0.0000  -0.0000  -0.0000  -0.0000  -0.0000  -0.0000  -0.0000  -0.0000
    -0.0000  -0.0000  -0.0000  -0.0000  -0.0000  -0.0000  -0.0000  -0.0000
    -0.0000  -0.0000  -0.0000  -0.0000  -0.0000  -0.0000  -0.0000  -0.0000
    -0.0000  -0.0000  -0.0000  -0.0000

          k = 0.0833 0.1443 0.0000 (  5369 PWs)   bands (ev):

   -51.4415 -51.4279 -27.6445 -27.6374 -27.5191 -27.5105 -27.4533 -27.4441
   -10.0736 -10.0107  -8.9694  -8.8792  -1.7944  -1.4941   0.3291   0.3713
     0.7635   1.0896   1.2405   1.2849   1.5412   1.5817   2.3208   2.6325
     3.6613   3.8688   5.9559   6.1565   6.2011   6.2461   6.2910   6.3838
     6.9003   6.9467   9.2078   9.7252  10.0107  10.3108  11.7786  11.9719
    12.7671  12.8714  13.0030  13.3012  14.1919  14.3073  14.5422  14.6290
    14.8021  15.5078  15.8194  15.9047  16.0691  17.2172  17.5396  17.8310
    18.1071  18.3988  18.5786  19.1622

     occupation numbers 
     1.0000   1.0000   1.0000   1.0000   1.0000   1.0000   1.0000   1.0000
     1.0000   1.0000   1.0000   1.0000   1.0000   1.0000   1.0000   1.0000
     1.0000   1.0000   1.0000   1.0000   1.0000   1.0000   1.0000   1.0053
    -0.0203  -0.0016  -0.0000  -0.0000  -0.0000  -0.0000  -0.0000  -0.0000
    -0.0000  -0.0000  -0.0000  -0.0000  -0.0000  -0.0000  -0.0000  -0.0000
    -0.0000  -0.0000  -0.0000  -0.0000  -0.0000  -0.0000  -0.0000  -0.0000
    -0.0000  -0.0000  -0.0000  -0.0000  -0.0000  -0.0000  -0.0000  -0.0000
    -0.0000  -0.0000  -0.0000  -0.0000

          k = 0.0833 0.2406 0.0000 (  5366 PWs)   bands (ev):

   -51.4318 -51.4181 -27.6235 -27.6160 -27.6133 -27.6056 -27.4794 -27.4704
    -9.7422  -9.6826  -8.8595  -8.7814  -1.4960  -1.2214  -0.1716  -0.1418
     0.2942   0.5138   1.0078   1.0673   1.5032   1.5518   2.2805   2.5739
     3.3164   3.3930   5.7383   5.9957   6.1739   6.2858   6.3316   6.5161
     7.4172   7.4772   9.6975  10.2408  10.9399  11.4337  12.0380  12.3209
    12.5149  12.7915  12.9353  13.2175  14.2136  14.3192  14.6893  14.8861
    15.0026  15.5288  15.7009  16.0608  16.0972  16.5768  16.9292  17.4338
    17.5940  17.9994  18.3484  19.3428

     occupation numbers 
     1.0000   1.0000   1.0000   1.0000   1.0000   1.0000   1.0000   1.0000
     1.0000   1.0000   1.0000   1.0000   1.0000   1.0000   1.0000   1.0000
     1.0000   1.0000   1.0000   1.0000   1.0000   1.0000   1.0000   1.0023
     0.1943   0.0495  -0.0000  -0.0000  -0.0000  -0.0000  -0.0000  -0.0000
    -0.0000  -0.0000  -0.0000  -0.0000  -0.0000  -0.0000  -0.0000  -0.0000
    -0.0000  -0.0000  -0.0000  -0.0000  -0.0000  -0.0000  -0.0000  -0.0000
    -0.0000  -0.0000  -0.0000  -0.0000  -0.0000  -0.0000  -0.0000  -0.0000
    -0.0000  -0.0000  -0.0000  -0.0000

          k = 0.0833 0.3368 0.0000 (  5378 PWs)   bands (ev):

   -51.4205 -51.4068 -27.7201 -27.7132 -27.5989 -27.5913 -27.5095 -27.5007
    -9.3277  -9.2746  -8.7223  -8.6603  -1.4475  -1.2921  -0.4193  -0.3278
    -0.2495  -0.1356   0.6528   0.7463   1.7138   1.7570   2.0423   2.3242
     2.9691   3.0246   5.7846   6.0101   6.2864   6.4378   6.6873   6.9004
     7.8360   7.8877  10.3005  10.7080  11.1431  11.4857  11.7942  12.1286
    12.2801  12.7945  13.1268  13.4961  14.2601  14.7343  14.8809  14.9573
    15.1760  15.3706  15.6324  15.9733  16.1882  16.9368  17.0705  17.6498
    17.8377  18.1121  18.3238  18.6134

     occupation numbers 
     1.0000   1.0000   1.0000   1.0000   1.0000   1.0000   1.0000   1.0000
     1.0000   1.0000   1.0000   1.0000   1.0000   1.0000   1.0000   1.0000
     1.0000   1.0000   1.0000   1.0000   1.0000   1.0000   1.0000   1.0000
     1.0085   0.9527  -0.0000  -0.0000  -0.0000  -0.0000  -0.0000  -0.0000
    -0.0000  -0.0000  -0.0000  -0.0000  -0.0000  -0.0000  -0.0000  -0.0000
    -0.0000  -0.0000  -0.0000  -0.0000  -0.0000  -0.0000  -0.0000  -0.0000
    -0.0000  -0.0000  -0.0000  -0.0000  -0.0000  -0.0000  -0.0000  -0.0000
    -0.0000  -0.0000  -0.0000  -0.0000

          k = 0.0833 0.4330 0.0000 (  5389 PWs)   bands (ev):

   -51.4107 -51.3969 -27.8110 -27.8048 -27.5776 -27.5697 -27.5355 -27.5269
    -8.9306  -8.8880  -8.5920  -8.5471  -1.7258  -1.6532  -0.8433  -0.7324
    -0.3272  -0.2698   0.4976   0.5749   1.7561   1.8304   1.8611   2.0647
     2.9628   3.0383   6.0616   6.2235   6.5214   6.6238   7.1088   7.3153
     7.9928   8.0511  10.4033  10.6319  11.0423  11.2446  11.3024  11.8792
    12.1303  12.9925  13.2540  13.7769  13.9351  14.0478  14.4394  14.9279
    15.4108  15.5386  16.2475  16.5808  16.7379  16.9956  17.5932  17.7008
    18.0775  18.2110  18.6964  19.0255

     occupation numbers 
     1.0000   1.0000   1.0000   1.0000   1.0000   1.0000   1.0000   1.0000
     1.0000   1.0000   1.0000   1.0000   1.0000   1.0000   1.0000   1.0000
     1.0000   1.0000   1.0000   1.0000   1.0000   1.0000   1.0000   1.0000
     1.0126   0.9328  -0.0000  -0.0000  -0.0000  -0.0000  -0.0000  -0.0000
    -0.0000  -0.0000  -0.0000  -0.0000  -0.0000  -0.0000  -0.0000  -0.0000
    -0.0000  -0.0000  -0.0000  -0.0000  -0.0000  -0.0000  -0.0000  -0.0000
    -0.0000  -0.0000  -0.0000  -0.0000  -0.0000  -0.0000  -0.0000  -0.0000
    -0.0000  -0.0000  -0.0000  -0.0000

          k = 0.0833 0.5292 0.0000 (  5386 PWs)   bands (ev):

   -51.4050 -51.3912 -27.8628 -27.8570 -27.5653 -27.5572 -27.5505 -27.5419
    -8.6787  -8.6476  -8.5098  -8.4779  -1.9401  -1.9004  -1.1480  -1.0459
    -0.3746  -0.3501   0.4510   0.5021   1.6003   1.8889   1.9021   1.9483
     3.1459   3.2420   6.3127   6.3629   6.7847   6.8549   7.4129   7.6242
     7.8764   8.0106   9.5233  10.0892  11.3249  11.4499  11.6178  11.9154
    12.3447  12.8470  13.0152  13.5212  13.6381  13.7676  14.0852  14.5119
    15.1624  15.4662  16.2445  16.7681  17.3713  17.4750  17.8141  18.0583
    18.4527  18.7835  19.0750  19.4010

     occupation numbers 
     1.0000   1.0000   1.0000   1.0000   1.0000   1.0000   1.0000   1.0000
     1.0000   1.0000   1.0000   1.0000   1.0000   1.0000   1.0000   1.0000
     1.0000   1.0000   1.0000   1.0000   1.0000   1.0000   1.0000   1.0000
     0.6921   0.4000  -0.0000  -0.0000  -0.0000  -0.0000  -0.0000  -0.0000
    -0.0000  -0.0000  -0.0000  -0.0000  -0.0000  -0.0000  -0.0000  -0.0000
    -0.0000  -0.0000  -0.0000  -0.0000  -0.0000  -0.0000  -0.0000  -0.0000
    -0.0000  -0.0000  -0.0000  -0.0000  -0.0000  -0.0000  -0.0000  -0.0000
    -0.0000  -0.0000  -0.0000  -0.0000

          k = 0.1667 0.2887 0.0000 (  5372 PWs)   bands (ev):

   -51.4220 -51.4083 -27.6944 -27.6872 -27.6022 -27.5946 -27.5175 -27.5087
    -9.3863  -9.3319  -8.7398  -8.6752  -1.3555  -1.1676  -0.3748  -0.3020
    -0.0679  -0.0017   0.4364   0.5810   1.5175   1.5572   2.2883   2.5121
     3.0626   3.0682   5.6390   5.9140   6.3203   6.4430   6.4914   6.6776
     7.8999   7.9610  10.2549  10.7321  11.4517  11.8805  12.1170  12.3645
    12.7660  12.8245  13.0216  13.1440  14.2254  14.4503  14.6625  14.7474
    14.8093  14.9829  15.1095  15.9214  16.0094  16.9092  16.9117  17.6897
    17.9967  18.2382  18.4435  19.6903

     occupation numbers 
     1.0000   1.0000   1.0000   1.0000   1.0000   1.0000   1.0000   1.0000
     1.0000   1.0000   1.0000   1.0000   1.0000   1.0000   1.0000   1.0000
     1.0000   1.0000   1.0000   1.0000   1.0000   1.0000   1.0000   1.0009
     0.8912   0.8807  -0.0000  -0.0000  -0.0000  -0.0000  -0.0000  -0.0000
    -0.0000  -0.0000  -0.0000  -0.0000  -0.0000  -0.0000  -0.0000  -0.0000
    -0.0000  -0.0000  -0.0000  -0.0000  -0.0000  -0.0000  -0.0000  -0.0000
    -0.0000  -0.0000  -0.0000  -0.0000  -0.0000  -0.0000  -0.0000  -0.0000
    -0.0000  -0.0000  -0.0000  -0.0000

          k = 0.1667 0.3849 0.0000 (  5380 PWs)   bands (ev):

   -51.4122 -51.3984 -27.7702 -27.7637 -27.5809 -27.5731 -27.5596 -27.5511
    -8.9986  -8.9531  -8.6075  -8.5589  -1.4812  -1.3824  -0.7247  -0.6737
    -0.2608  -0.1696   0.3206   0.4797   1.2902   1.3275   2.0582   2.2480
     3.0192   3.0574   5.8165   6.1417   6.5906   6.6204   6.8041   6.9789
     8.1525   8.2120  10.8088  11.1370  11.2083  11.4337  11.8104  12.3017
    12.5270  13.1578  13.3099  13.6507  13.8469  14.1793  14.4571  14.8824
    15.0594  15.2708  15.4337  15.7434  16.1106  17.2045  17.3202  17.4641
    17.9351  18.1706  18.6842  19.0024

     occupation numbers 
     1.0000   1.0000   1.0000   1.0000   1.0000   1.0000   1.0000   1.0000
     1.0000   1.0000   1.0000   1.0000   1.0000   1.0000   1.0000   1.0000
     1.0000   1.0000   1.0000   1.0000   1.0000   1.0000   1.0000   1.0000
     0.9597   0.9008  -0.0000  -0.0000  -0.0000  -0.0000  -0.0000  -0.0000
    -0.0000  -0.0000  -0.0000  -0.0000  -0.0000  -0.0000  -0.0000  -0.0000
    -0.0000  -0.0000  -0.0000  -0.0000  -0.0000  -0.0000  -0.0000  -0.0000
    -0.0000  -0.0000  -0.0000  -0.0000  -0.0000  -0.0000  -0.0000  -0.0000
    -0.0000  -0.0000  -0.0000  -0.0000

          k = 0.1667 0.4811 0.0000 (  5371 PWs)   bands (ev):

   -51.4050 -51.3912 -27.8236 -27.8175 -27.5917 -27.5834 -27.5653 -27.5573
    -8.6879  -8.6541  -8.4998  -8.4662  -1.6337  -1.5805  -1.2066  -1.1492
    -0.2594  -0.2137   0.4014   0.5187   1.1199   1.1840   1.7486   1.9507
     3.2308   3.2869   6.0922   6.2487   6.8079   6.9069   7.1806   7.3108
     8.0754   8.2396  10.1060  10.6954  11.5802  11.7151  11.9310  12.2892
    12.6097  12.7840  13.2230  13.5846  13.7173  14.0880  14.3077  14.9052
    15.3619  15.6734  15.9548  16.3697  16.5830  16.6526  17.1513  17.4930
    17.7805  18.1765  18.4429  18.7262

     occupation numbers 
     1.0000   1.0000   1.0000   1.0000   1.0000   1.0000   1.0000   1.0000
     1.0000   1.0000   1.0000   1.0000   1.0000   1.0000   1.0000   1.0000
     1.0000   1.0000   1.0000   1.0000   1.0000   1.0000   1.0000   1.0000
     0.4343   0.2700  -0.0000  -0.0000  -0.0000  -0.0000  -0.0000  -0.0000
    -0.0000  -0.0000  -0.0000  -0.0000  -0.0000  -0.0000  -0.0000  -0.0000
    -0.0000  -0.0000  -0.0000  -0.0000  -0.0000  -0.0000  -0.0000  -0.0000
    -0.0000  -0.0000  -0.0000  -0.0000  -0.0000  -0.0000  -0.0000  -0.0000
    -0.0000  -0.0000  -0.0000  -0.0000

          k = 0.1667 0.5774 0.0000 (  5390 PWs)   bands (ev):

   -51.4024 -51.3885 -27.8428 -27.8369 -27.6036 -27.5954 -27.5596 -27.5515
    -8.5668  -8.5406  -8.4568  -8.4299  -1.6785  -1.6569  -1.3811  -1.3216
    -0.3261  -0.2944   0.4783   0.5554   1.0875   1.1718   1.5949   1.8144
     3.3892   3.4611   6.1239   6.1564   7.0011   7.1486   7.4031   7.4581
     7.9279   8.1861   9.6543  10.3266  11.8840  12.1274  12.2544  12.4253
    12.4604  12.7447  12.9007  13.1910  13.8682  14.1066  14.4002  14.5190
    15.3053  15.5333  16.2524  16.3989  16.5128  17.1349  17.2378  17.4674
    17.9605  18.2191  18.6664  18.9146

     occupation numbers 
     1.0000   1.0000   1.0000   1.0000   1.0000   1.0000   1.0000   1.0000
     1.0000   1.0000   1.0000   1.0000   1.0000   1.0000   1.0000   1.0000
     1.0000   1.0000   1.0000   1.0000   1.0000   1.0000   1.0000   1.0000
     0.0549  -0.0154  -0.0000  -0.0000  -0.0000  -0.0000  -0.0000  -0.0000
    -0.0000  -0.0000  -0.0000  -0.0000  -0.0000  -0.0000  -0.0000  -0.0000
    -0.0000  -0.0000  -0.0000  -0.0000  -0.0000  -0.0000  -0.0000  -0.0000
    -0.0000  -0.0000  -0.0000  -0.0000  -0.0000  -0.0000  -0.0000  -0.0000
    -0.0000  -0.0000  -0.0000  -0.0000

          k = 0.2500 0.4330 0.0000 (  5370 PWs)   bands (ev):

   -51.4050 -51.3912 -27.7975 -27.7913 -27.6188 -27.6107 -27.5654 -27.5573
    -8.6923  -8.6574  -8.4948  -8.4603  -1.4509  -1.3737  -1.2305  -1.1990
    -0.1428  -0.0490   0.3672   0.5228   0.6809   0.6971   1.8435   1.9723
     3.2577   3.2789   5.9766   6.1815   6.8137   6.9161   7.0092   7.1300
     8.3470   8.3939  10.6833  10.8517  11.5441  11.6006  11.7567  12.6182
    12.8525  12.9172  13.0759  13.9500  14.3313  14.4403  14.7340  15.2431
    15.2647  15.3550  15.4090  15.6380  16.1091  16.6996  16.7066  17.3210
    17.4458  17.8579  18.0583  18.8038

     occupation numbers 
     1.0000   1.0000   1.0000   1.0000   1.0000   1.0000   1.0000   1.0000
     1.0000   1.0000   1.0000   1.0000   1.0000   1.0000   1.0000   1.0000
     1.0000   1.0000   1.0000   1.0000   1.0000   1.0000   1.0000   1.0000
     0.3530   0.2919  -0.0000  -0.0000  -0.0000  -0.0000  -0.0000  -0.0000
    -0.0000  -0.0000  -0.0000  -0.0000  -0.0000  -0.0000  -0.0000  -0.0000
    -0.0000  -0.0000  -0.0000  -0.0000  -0.0000  -0.0000  -0.0000  -0.0000
    -0.0000  -0.0000  -0.0000  -0.0000  -0.0000  -0.0000  -0.0000  -0.0000
    -0.0000  -0.0000  -0.0000  -0.0000

          k = 0.2500 0.5292 0.0000 (  5358 PWs)   bands (ev):

   -51.4009 -51.3870 -27.8034 -27.7973 -27.6628 -27.6549 -27.5563 -27.5482
    -8.5051  -8.4813  -8.4211  -8.3966  -1.5506  -1.5156  -1.3042  -1.2540
    -0.2525  -0.1610   0.2936   0.3932   0.5522   0.6733   1.5734   1.6860
     3.5777   3.6050   5.8271   5.8607   7.0123   7.0815   7.3010   7.4375
     8.4277   8.5275  10.1472  10.6757  11.1266  11.7077  12.1571  12.9221
    13.1567  13.3112  13.5009  14.0701  14.2827  14.6331  14.7712  15.1034
    15.2276  15.4189  15.7225  15.9450  16.3169  16.3465  16.5311  16.7916
    17.2769  17.5261  18.0331  18.6487

     occupation numbers 
     1.0000   1.0000   1.0000   1.0000   1.0000   1.0000   1.0000   1.0000
     1.0000   1.0000   1.0000   1.0000   1.0000   1.0000   1.0000   1.0000
     1.0000   1.0000   1.0000   1.0000   1.0000   1.0000   1.0000   1.0000
    -0.0333  -0.0297  -0.0000  -0.0000  -0.0000  -0.0000  -0.0000  -0.0000
    -0.0000  -0.0000  -0.0000  -0.0000  -0.0000  -0.0000  -0.0000  -0.0000
    -0.0000  -0.0000  -0.0000  -0.0000  -0.0000  -0.0000  -0.0000  -0.0000
    -0.0000  -0.0000  -0.0000  -0.0000  -0.0000  -0.0000  -0.0000  -0.0000
    -0.0000  -0.0000  -0.0000  -0.0000

          k = 0.3333 0.5774 0.0000 (  5358 PWs)   bands (ev):

   -51.3993 -51.3855 -27.7725 -27.7667 -27.7125 -27.7045 -27.5531 -27.5449
    -8.4380  -8.4206  -8.3888  -8.3661  -1.6862  -1.6543  -0.9278  -0.8552
    -0.4376  -0.4222  -0.0019   0.0141   0.6847   0.8073   1.4603   1.4860
     3.8113   3.8136   5.5525   5.5775   6.9757   7.0143   7.5583   7.5930
     8.6486   8.6816  10.3801  10.6627  10.6686  11.3264  12.2313  13.6278
    13.6305  13.6408  14.1968  14.2077  14.5349  14.5390  14.9573  14.9871
    14.9994  15.5938  15.6916  16.0353  16.1271  16.1303  16.2687  16.5673
    16.5704  17.1197  18.5467  18.5677

     occupation numbers 
     1.0000   1.0000   1.0000   1.0000   1.0000   1.0000   1.0000   1.0000
     1.0000   1.0000   1.0000   1.0000   1.0000   1.0000   1.0000   1.0000
     1.0000   1.0000   1.0000   1.0000   1.0000   1.0000   1.0000   1.0000
    -0.0038  -0.0037  -0.0000  -0.0000  -0.0000  -0.0000  -0.0000  -0.0000
    -0.0000  -0.0000  -0.0000  -0.0000  -0.0000  -0.0000  -0.0000  -0.0000
    -0.0000  -0.0000  -0.0000  -0.0000  -0.0000  -0.0000  -0.0000  -0.0000
    -0.0000  -0.0000  -0.0000  -0.0000  -0.0000  -0.0000  -0.0000  -0.0000
    -0.0000  -0.0000  -0.0000  -0.0000

     the Fermi energy is     3.2096 ev

!    total energy              =    -907.91146798 Ry

     total all-electron energy =    -18448.320490 Ry
     estimated scf accuracy    <          5.2E-10 Ry
     smearing contrib. (-TS)   =      -0.00201069 Ry
     internal energy E=F+TS    =    -907.90945729 Ry

     The total energy is F=E-TS. E is the sum of the following terms:
     one-electron contribution =   -1048.08179935 Ry
     hartree contribution      =     537.56960856 Ry
     xc contribution           =     -65.32314682 Ry
     ewald contribution        =     256.18108273 Ry
     one-center paw contrib.   =    -588.25520242 Ry
      -> PAW hartree energy AE =     100.87604365 Ry
      -> PAW hartree energy PS =    -100.36191632 Ry
      -> PAW xc energy AE      =    -324.79854402 Ry
      -> PAW xc energy PS      =      30.15763023 Ry
      -> total E_H with PAW    =     538.08373590 Ry
      -> total E_XC with PAW   =    -359.96406060 Ry

     convergence has been achieved in  14 iterations

     Writing output data file ./tmp/NbS2_bi.save/

     init_run     :      5.91s CPU      6.11s WALL (       1 calls)
     electrons    :    255.50s CPU    260.64s WALL (       1 calls)

     Called by init_run:
     wfcinit      :      4.54s CPU      4.59s WALL (       1 calls)
     wfcinit:atom :      0.02s CPU      0.02s WALL (      19 calls)
     wfcinit:wfcr :      4.41s CPU      4.46s WALL (      19 calls)
     potinit      :      0.31s CPU      0.33s WALL (       1 calls)
     hinit0       :      0.60s CPU      0.61s WALL (       1 calls)

     Called by electrons:
     c_bands      :    214.56s CPU    216.13s WALL (      15 calls)
     sum_band     :     33.26s CPU     35.34s WALL (      15 calls)
     v_of_rho     :      0.47s CPU      0.50s WALL (      15 calls)
     v_h          :      0.25s CPU      0.27s WALL (      15 calls)
     v_xc         :      0.22s CPU      0.23s WALL (      15 calls)
     newd         :      5.93s CPU      7.48s WALL (      15 calls)
     PAW_pot      :      0.88s CPU      0.88s WALL (      15 calls)
     mix_rho      :      0.53s CPU      0.53s WALL (      15 calls)

     Called by c_bands:
     init_us_2    :      0.86s CPU      0.88s WALL (     589 calls)
     cegterg      :    212.00s CPU    213.46s WALL (     285 calls)

     Called by sum_band:
     sum_band:wei :      0.02s CPU      0.02s WALL (      15 calls)
     sum_band:loo :     24.50s CPU     24.76s WALL (      15 calls)
     sum_band:buf :      0.37s CPU      0.37s WALL (     285 calls)
     sum_band:ini :      0.40s CPU      0.40s WALL (     285 calls)
     sum_band:cal :      6.18s CPU      6.20s WALL (     285 calls)
     sum_band:bec :      0.03s CPU      0.03s WALL (     285 calls)
     addusdens    :      8.39s CPU     10.19s WALL (      15 calls)
     addusd:skk   :      0.03s CPU      0.05s WALL (      30 calls)
     addusd:dgemm :      3.24s CPU      4.77s WALL (      30 calls)
     addusd:qvan2 :      4.63s CPU      4.64s WALL (      30 calls)

     Called by *egterg:
     cdiaghg      :      7.64s CPU      7.65s WALL (    1339 calls)
     cegterg:over :     25.38s CPU     25.44s WALL (    1073 calls)
     cegterg:upda :     13.67s CPU     13.68s WALL (    1073 calls)
     cegterg:last :     37.68s CPU     37.70s WALL (     508 calls)
     h_psi        :    104.75s CPU    106.09s WALL (    1377 calls)
     s_psi        :     13.33s CPU     13.37s WALL (    1377 calls)
     g_psi        :      0.29s CPU      0.29s WALL (    1073 calls)

     Called by h_psi:
     h_psi:calbec :     15.33s CPU     15.38s WALL (    1377 calls)
     vloc_psi     :     76.01s CPU     77.28s WALL (    1377 calls)
     add_vuspsi   :     12.58s CPU     12.60s WALL (    1377 calls)

     General routines
     calbec       :     21.51s CPU     21.58s WALL (    1662 calls)
     fft          :      1.18s CPU      1.22s WALL (      89 calls)
     ffts         :      0.05s CPU      0.05s WALL (      30 calls)
     fftw         :     82.47s CPU     83.81s WALL (   98618 calls)
     interpolate  :      0.26s CPU      0.26s WALL (      15 calls)

     Parallel routines
     fft_scatt_xy :      9.28s CPU      9.41s WALL (   98737 calls)
     fft_scatt_yz :      6.46s CPU      6.59s WALL (   98737 calls)

     PAW routines
     PAW_pot      :      0.88s CPU      0.88s WALL (      15 calls)
     PAW_symme    :      0.00s CPU      0.00s WALL (      30 calls)

     PWSCF        :   4m22.58s CPU   4m28.58s WALL


   This run was terminated on:  16:59:27  14Jun2021            

=------------------------------------------------------------------------------=
   JOB DONE.
=------------------------------------------------------------------------------=
