
     Program PWSCF v.6.6 starts on 14Jun2021 at 16:36:24 

     This program is part of the open-source Quantum ESPRESSO suite
     for quantum simulation of materials; please cite
         "P. Giannozzi et al., J. Phys.:Condens. Matter 21 395502 (2009);
         "P. Giannozzi et al., J. Phys.:Condens. Matter 29 465901 (2017);
          URL http://www.quantum-espresso.org", 
     in publications or presentations arising from this work. More details at
     http://www.quantum-espresso.org/quote

     Parallel version (MPI), running on     2 processors

     MPI processes distributed on     1 nodes
     R & G space division:  proc/nbgrp/npool/nimage =       2
     Fft bands division:     nmany     =       1
     Waiting for input...
     Reading input from standard input

     Current dimensions of program PWSCF are:
     Max number of different atomic species (ntypx) = 10
     Max number of k-points (npk) =  40000
     Max angular momentum in pseudopotentials (lmaxx) =  3
     file Nb.pz-spn-kjpaw_psl.1.0.0.UPF: wavefunction(s)  4S 4P 4D renormalized
     file S.pz-n-kjpaw_psl.0.1.UPF: wavefunction(s)  3P renormalized

     Subspace diagonalization in iterative solution of the eigenvalue problem:
     a serial algorithm will be used


     Parallelization info
     --------------------
     sticks:   dense  smooth     PW     G-vecs:    dense   smooth      PW
     Min         534     210     60                85019    21488    3522
     Max         535     211     61                85022    21517    3545
     Sum        1069     421    121               170041    43005    7067



     bravais-lattice index     =            4
     lattice parameter (alat)  =       6.2006  a.u.
     unit-cell volume          =    1258.4114 (a.u.)^3
     number of atoms/cell      =            6
     number of atomic types    =            2
     number of electrons       =        50.00
     number of Kohn-Sham states=           60
     kinetic-energy cutoff     =      40.0000  Ry
     charge density cutoff     =     400.0000  Ry
     convergence threshold     =      1.0E-08
     mixing beta               =       0.7000
     number of iterations used =            8  plain     mixing
     Exchange-correlation= SLA PZ NOGX NOGC
                           (   1   1   0   0   0   0   0)

     celldm(1)=   6.200569  celldm(2)=   0.000000  celldm(3)=   6.095331
     celldm(4)=   0.000000  celldm(5)=   0.000000  celldm(6)=   0.000000

     crystal axes: (cart. coord. in units of alat)
               a(1) = (   1.000000   0.000000   0.000000 )  
               a(2) = (  -0.500000   0.866025   0.000000 )  
               a(3) = (   0.000000   0.000000   6.095331 )  

     reciprocal axes: (cart. coord. in units 2 pi/alat)
               b(1) = (  1.000000  0.577350 -0.000000 )  
               b(2) = (  0.000000  1.154701  0.000000 )  
               b(3) = (  0.000000 -0.000000  0.164060 )  


     PseudoPot. # 1 for Nb read from file:
     ../Nb.pz-spn-kjpaw_psl.1.0.0.UPF
     MD5 check sum: 38c2e04b3cc915696ca8dc9f46a23270
     Pseudo is Projector augmented-wave + core cor, Zval = 13.0
     Generated using "atomic" code by A. Dal Corso v.6.2.2
     Shape of augmentation charge: PSQ
     Using radial grid of 1227 points,  6 beta functions with: 
                l(1) =   0
                l(2) =   0
                l(3) =   1
                l(4) =   1
                l(5) =   2
                l(6) =   2
     Q(r) pseudized with 0 coefficients 


     PseudoPot. # 2 for S  read from file:
     ../S.pz-n-kjpaw_psl.0.1.UPF
     MD5 check sum: c0b1682311cf098e03f7841691d9a679
     Pseudo is Projector augmented-wave + core cor, Zval =  6.0
     Generated using "atomic" code by A. Dal Corso v.5.0.2 svn rev. 9415
     Shape of augmentation charge: PSQ
     Using radial grid of 1151 points,  4 beta functions with: 
                l(1) =   0
                l(2) =   0
                l(3) =   1
                l(4) =   1
     Q(r) pseudized with 0 coefficients 


     atomic species   valence    mass     pseudopotential
        Nb            13.00    92.90600     Nb( 1.00)
        S              6.00    32.06500     S ( 1.00)

      6 Sym. Ops. (no inversion) found


                                    s                        frac. trans.

      isym =  1     identity                                     

 cryst.   s( 1) = (     1          0          0      )
                  (     0          1          0      )
                  (     0          0          1      )

 cart.    s( 1) = (  1.0000000  0.0000000  0.0000000 )
                  (  0.0000000  1.0000000  0.0000000 )
                  (  0.0000000  0.0000000  1.0000000 )


      isym =  2     120 deg rotation - cryst. axis [0,0,1]       

 cryst.   s( 2) = (     0          1          0      )
                  (    -1         -1          0      )
                  (     0          0          1      )

 cart.    s( 2) = ( -0.5000000 -0.8660254  0.0000000 )
                  (  0.8660254 -0.5000000  0.0000000 )
                  (  0.0000000  0.0000000  1.0000000 )


      isym =  3     120 deg rotation - cryst. axis [0,0,-1]      

 cryst.   s( 3) = (    -1         -1          0      )
                  (     1          0          0      )
                  (     0          0          1      )

 cart.    s( 3) = ( -0.5000000  0.8660254  0.0000000 )
                  ( -0.8660254 -0.5000000  0.0000000 )
                  (  0.0000000  0.0000000  1.0000000 )


      isym =  4     inv. 180 deg rotation - cart. axis [1,0,0]   

 cryst.   s( 4) = (    -1          0          0      )
                  (     1          1          0      )
                  (     0          0          1      )

 cart.    s( 4) = ( -1.0000000  0.0000000  0.0000000 )
                  (  0.0000000  1.0000000  0.0000000 )
                  (  0.0000000  0.0000000  1.0000000 )


      isym =  5     inv. 180 deg rotation - cryst. axis [0,1,0]  

 cryst.   s( 5) = (     1          1          0      )
                  (     0         -1          0      )
                  (     0          0          1      )

 cart.    s( 5) = (  0.5000000  0.8660254  0.0000000 )
                  (  0.8660254 -0.5000000  0.0000000 )
                  (  0.0000000  0.0000000  1.0000000 )


      isym =  6     inv. 180 deg rotation - cryst. axis [1,1,0]  

 cryst.   s( 6) = (     0         -1          0      )
                  (    -1          0          0      )
                  (     0          0          1      )

 cart.    s( 6) = (  0.5000000 -0.8660254  0.0000000 )
                  ( -0.8660254 -0.5000000  0.0000000 )
                  (  0.0000000  0.0000000  1.0000000 )


     point group C_3v (3m)  
     there are  3 classes
     the character table:

       E     2C3   3s_v 
A_1    1.00  1.00  1.00
A_2    1.00  1.00 -1.00
E      2.00 -1.00  0.00

     the symmetry operations in each class and the name of the first element:

     E        1
          identity                                               
     2C3      2    3
          120 deg rotation - cryst. axis [0,0,1]                 
     3s_v     4    5    6
          inv. 180 deg rotation - cart. axis [1,0,0]             

   Cartesian axes

     site n.     atom                  positions (alat units)
         1           S   tau(   1) = (   0.0000000   0.5773503   1.4932768  )
         2           Nb  tau(   2) = (   0.0000000   0.0000000   1.0094618  )
         3           S   tau(   3) = (   0.0000000   0.5773503   0.5321904  )
         4           S   tau(   4) = (   0.5000000   0.2886751   2.5511139  )
         5           Nb  tau(   5) = (   0.0000000   0.0000000   3.0283905  )
         6           S   tau(   6) = (   0.5000000   0.2886751   3.5056620  )

   Crystallographic axes

     site n.     atom                  positions (cryst. coord.)
         1           S   tau(   1) = (  0.3333333  0.6666667  0.2449870  )
         2           Nb  tau(   2) = (  0.0000000  0.0000000  0.1656123  )
         3           S   tau(   3) = (  0.3333333  0.6666667  0.0873112  )
         4           S   tau(   4) = (  0.6666667  0.3333333  0.4185358  )
         5           Nb  tau(   5) = (  0.0000000  0.0000000  0.4968378  )
         6           S   tau(   6) = (  0.6666667  0.3333333  0.5751389  )

     number of k points=     5  Methfessel-Paxton smearing, width (Ry)=  0.0200
                       cart. coord. in units 2pi/alat
        k(    1) = (   0.0000000   0.0000000   0.0000000), wk =   0.0800000
        k(    2) = (   0.0000000   0.2309401   0.0000000), wk =   0.4800000
        k(    3) = (   0.0000000   0.4618802   0.0000000), wk =   0.4800000
        k(    4) = (   0.2000000   0.3464102   0.0000000), wk =   0.4800000
        k(    5) = (   0.2000000   0.5773503   0.0000000), wk =   0.4800000

                       cryst. coord.
        k(    1) = (   0.0000000   0.0000000   0.0000000), wk =   0.0800000
        k(    2) = (   0.0000000   0.2000000   0.0000000), wk =   0.4800000
        k(    3) = (   0.0000000   0.4000000   0.0000000), wk =   0.4800000
        k(    4) = (   0.2000000   0.2000000   0.0000000), wk =   0.4800000
        k(    5) = (   0.2000000   0.4000000   0.0000000), wk =   0.4800000

     Dense  grid:   170041 G-vectors     FFT dimensions: (  40,  40, 243)

     Smooth grid:    43005 G-vectors     FFT dimensions: (  25,  25, 160)

     Dynamical RAM for                 wfc:       2.46 MB

     Dynamical RAM for     wfc (w. buffer):      14.77 MB

     Dynamical RAM for           str. fact:       2.59 MB

     Dynamical RAM for           local pot:       0.00 MB

     Dynamical RAM for          nlocal pot:       2.79 MB

     Dynamical RAM for                qrad:       3.21 MB

     Dynamical RAM for          rho,v,vnew:       8.36 MB

     Dynamical RAM for               rhoin:       2.79 MB

     Dynamical RAM for            rho*nmix:      20.76 MB

     Dynamical RAM for           G-vectors:       5.03 MB

     Dynamical RAM for          h,s,v(r/c):       0.66 MB

     Dynamical RAM for          <psi|beta>:       0.06 MB

     Dynamical RAM for                 psi:       4.92 MB

     Dynamical RAM for                hpsi:       4.92 MB

     Dynamical RAM for                spsi:       4.92 MB

     Dynamical RAM for      wfcinit/wfcrot:       5.00 MB

     Dynamical RAM for           addusdens:     246.48 MB

     Estimated static dynamical RAM per process >      71.63 MB

     Estimated max dynamical RAM per process >     318.11 MB

     Estimated total dynamical RAM >     636.23 MB

     Initial potential from superposition of free atoms

     starting charge   49.99775, renormalised to   50.00000

     negative rho (up, down):  7.872E-05 0.000E+00
     Starting wfcs are   42 randomized atomic wfcs +   18 random wfcs
     Checking if some PAW data can be deallocated... 

     total cpu time spent up to now is        3.8 secs

     Self-consistent Calculation

     iteration #  1     ecut=    40.00 Ry     beta= 0.70
     Davidson diagonalization with overlap
     ethr =  1.00E-02,  avg # of iterations =  8.4

     Threshold (ethr) on eigenvalues was too large:
     Diagonalizing with lowered threshold

     Davidson diagonalization with overlap
     ethr =  5.39E-04,  avg # of iterations =  2.2

     negative rho (up, down):  1.255E-04 0.000E+00

     total cpu time spent up to now is       17.6 secs

     total energy              =    -907.81456347 Ry
     estimated scf accuracy    <       0.27006858 Ry

     iteration #  2     ecut=    40.00 Ry     beta= 0.70
     Davidson diagonalization with overlap
     ethr =  5.40E-04,  avg # of iterations =  5.6

     negative rho (up, down):  1.374E-04 0.000E+00

     total cpu time spent up to now is       24.0 secs

     total energy              =    -907.58509877 Ry
     estimated scf accuracy    <       1.38523332 Ry

     iteration #  3     ecut=    40.00 Ry     beta= 0.70
     Davidson diagonalization with overlap
     ethr =  5.40E-04,  avg # of iterations =  7.6

     negative rho (up, down):  1.269E-04 0.000E+00

     total cpu time spent up to now is       30.7 secs

     total energy              =    -906.13619904 Ry
     estimated scf accuracy    <      80.65894697 Ry

     iteration #  4     ecut=    40.00 Ry     beta= 0.70
     Davidson diagonalization with overlap
     ethr =  5.40E-04,  avg # of iterations =  6.6

     negative rho (up, down):  1.259E-04 0.000E+00

     total cpu time spent up to now is       37.1 secs

     total energy              =    -907.89763460 Ry
     estimated scf accuracy    <       0.10857616 Ry

     iteration #  5     ecut=    40.00 Ry     beta= 0.70
     Davidson diagonalization with overlap
     ethr =  2.17E-04,  avg # of iterations =  2.2

     negative rho (up, down):  1.268E-04 0.000E+00

     total cpu time spent up to now is       42.4 secs

     total energy              =    -907.91100950 Ry
     estimated scf accuracy    <       0.01719623 Ry

     iteration #  6     ecut=    40.00 Ry     beta= 0.70
     Davidson diagonalization with overlap
     ethr =  3.44E-05,  avg # of iterations =  6.6

     negative rho (up, down):  1.288E-04 0.000E+00

     total cpu time spent up to now is       48.2 secs

     total energy              =    -907.90957017 Ry
     estimated scf accuracy    <       0.05050138 Ry

     iteration #  7     ecut=    40.00 Ry     beta= 0.70
     Davidson diagonalization with overlap
     ethr =  3.44E-05,  avg # of iterations =  3.0

     negative rho (up, down):  1.301E-04 0.000E+00

     total cpu time spent up to now is       53.6 secs

     total energy              =    -907.91349861 Ry
     estimated scf accuracy    <       0.00874568 Ry

     iteration #  8     ecut=    40.00 Ry     beta= 0.70
     Davidson diagonalization with overlap
     ethr =  1.75E-05,  avg # of iterations =  1.8

     negative rho (up, down):  1.310E-04 0.000E+00

     total cpu time spent up to now is       58.4 secs

     total energy              =    -907.91428935 Ry
     estimated scf accuracy    <       0.00218421 Ry

     iteration #  9     ecut=    40.00 Ry     beta= 0.70
     Davidson diagonalization with overlap
     ethr =  4.37E-06,  avg # of iterations =  2.0

     negative rho (up, down):  1.318E-04 0.000E+00

     total cpu time spent up to now is       63.5 secs

     total energy              =    -907.91439271 Ry
     estimated scf accuracy    <       0.00100035 Ry

     iteration # 10     ecut=    40.00 Ry     beta= 0.70
     Davidson diagonalization with overlap
     ethr =  2.00E-06,  avg # of iterations =  6.4

     negative rho (up, down):  1.322E-04 0.000E+00

     total cpu time spent up to now is       68.9 secs

     total energy              =    -907.91449047 Ry
     estimated scf accuracy    <       0.00003775 Ry

     iteration # 11     ecut=    40.00 Ry     beta= 0.70
     Davidson diagonalization with overlap
     ethr =  7.55E-08,  avg # of iterations =  1.0

     negative rho (up, down):  1.323E-04 0.000E+00

     total cpu time spent up to now is       73.5 secs

     total energy              =    -907.91449131 Ry
     estimated scf accuracy    <       0.00000507 Ry

     iteration # 12     ecut=    40.00 Ry     beta= 0.70
     Davidson diagonalization with overlap
     ethr =  1.01E-08,  avg # of iterations =  1.0

     negative rho (up, down):  1.323E-04 0.000E+00

     total cpu time spent up to now is       78.1 secs

     total energy              =    -907.91449147 Ry
     estimated scf accuracy    <       0.00000023 Ry

     iteration # 13     ecut=    40.00 Ry     beta= 0.70
     Davidson diagonalization with overlap
     ethr =  4.62E-10,  avg # of iterations =  2.2

     negative rho (up, down):  1.323E-04 0.000E+00

     total cpu time spent up to now is       83.3 secs

     total energy              =    -907.91449149 Ry
     estimated scf accuracy    <       0.00000003 Ry

     iteration # 14     ecut=    40.00 Ry     beta= 0.70
     Davidson diagonalization with overlap
     ethr =  6.27E-11,  avg # of iterations =  1.6

     negative rho (up, down):  1.323E-04 0.000E+00

     total cpu time spent up to now is       88.2 secs

     End of self-consistent calculation

          k = 0.0000 0.0000 0.0000 (  5429 PWs)   bands (ev):

   -51.4484 -51.4413 -27.6663 -27.6661 -27.4263 -27.4263 -27.4233 -27.4233
   -10.3471 -10.2792  -9.0584  -8.9582  -2.1063  -1.8013   0.9782   0.9782
     1.0350   1.0350   1.3964   2.0756   2.0756   2.1222   2.1222   2.1327
     3.8413   4.2740   6.3288   6.3288   6.3697   6.3697   6.5093   6.5093
     6.5380   6.5380   8.5550   8.7383   9.0083   9.6083  11.3530  11.5607
    11.6249  11.9830  13.8549  13.8549  13.8822  13.8822  14.0183  15.7619
    15.8009  15.8009  16.0502  16.0502  16.1257  17.0999  18.0563  18.5293
    18.6709  18.6710  18.8060  19.1746

     occupation numbers 
     1.0000   1.0000   1.0000   1.0000   1.0000   1.0000   1.0000   1.0000
     1.0000   1.0000   1.0000   1.0000   1.0000   1.0000   1.0000   1.0000
     1.0000   1.0000   1.0000   1.0000   1.0000   1.0000   1.0000   1.0000
    -0.0056  -0.0000  -0.0000  -0.0000  -0.0000  -0.0000  -0.0000  -0.0000
    -0.0000  -0.0000  -0.0000  -0.0000  -0.0000  -0.0000  -0.0000  -0.0000
    -0.0000  -0.0000  -0.0000  -0.0000  -0.0000  -0.0000  -0.0000  -0.0000
    -0.0000  -0.0000  -0.0000  -0.0000  -0.0000  -0.0000  -0.0000  -0.0000
    -0.0000  -0.0000  -0.0000  -0.0000

          k = 0.0000 0.2309 0.0000 (  5379 PWs)   bands (ev):

   -51.4329 -51.4257 -27.6328 -27.6321 -27.5844 -27.5827 -27.4615 -27.4587
    -9.8369  -9.7732  -8.8896  -8.8074  -1.5752  -1.2907  -0.0576  -0.0178
     0.3539   0.5955   1.3646   1.3976   1.4767   1.5458   2.1176   2.4724
     3.4026   3.5194   5.8166   6.1659   6.1706   6.2201   6.3731   6.5710
     7.1874   7.2363   9.5349  10.0723  10.6241  11.0864  11.9945  12.1570
    12.6460  12.8254  12.8506  13.1649  14.1298  14.3804  14.8498  15.2702
    15.2901  15.4011  15.6768  15.8940  16.3085  16.6684  16.9304  17.4625
    17.6062  18.0629  18.1964  18.9439

     occupation numbers 
     1.0000   1.0000   1.0000   1.0000   1.0000   1.0000   1.0000   1.0000
     1.0000   1.0000   1.0000   1.0000   1.0000   1.0000   1.0000   1.0000
     1.0000   1.0000   1.0000   1.0000   1.0000   1.0000   1.0000   1.0001
     0.1335  -0.0151  -0.0000  -0.0000  -0.0000  -0.0000  -0.0000  -0.0000
    -0.0000  -0.0000  -0.0000  -0.0000  -0.0000  -0.0000  -0.0000  -0.0000
    -0.0000  -0.0000  -0.0000  -0.0000  -0.0000  -0.0000  -0.0000  -0.0000
    -0.0000  -0.0000  -0.0000  -0.0000  -0.0000  -0.0000  -0.0000  -0.0000
    -0.0000  -0.0000  -0.0000  -0.0000

          k = 0.0000 0.4619 0.0000 (  5375 PWs)   bands (ev):

   -51.4076 -51.4003 -27.8316 -27.8313 -27.5780 -27.5767 -27.5178 -27.5154
    -8.8664  -8.8227  -8.5742  -8.5301  -1.8823  -1.8182  -0.9082  -0.7752
    -0.3668  -0.3158   0.5669   0.6150   1.6097   1.9586   2.2121   2.2653
     2.8826   2.9909   6.2676   6.2900   6.4476   6.6672   7.2122   7.4798
     7.9834   8.0926  10.0123  10.2901  10.9318  10.9969  11.1738  11.6726
    12.0180  12.8701  13.2778  13.6557  13.8435  14.3416  14.4318  14.8160
    15.2125  15.6179  16.3205  17.0312  17.1267  17.4066  17.6151  18.1161
    18.1546  18.6423  18.9799  19.0881

     occupation numbers 
     1.0000   1.0000   1.0000   1.0000   1.0000   1.0000   1.0000   1.0000
     1.0000   1.0000   1.0000   1.0000   1.0000   1.0000   1.0000   1.0000
     1.0000   1.0000   1.0000   1.0000   1.0000   1.0000   1.0000   1.0000
     1.0311   1.0270  -0.0000  -0.0000  -0.0000  -0.0000  -0.0000  -0.0000
    -0.0000  -0.0000  -0.0000  -0.0000  -0.0000  -0.0000  -0.0000  -0.0000
    -0.0000  -0.0000  -0.0000  -0.0000  -0.0000  -0.0000  -0.0000  -0.0000
    -0.0000  -0.0000  -0.0000  -0.0000  -0.0000  -0.0000  -0.0000  -0.0000
    -0.0000  -0.0000  -0.0000  -0.0000

          k = 0.2000 0.3464 0.0000 (  5376 PWs)   bands (ev):

   -51.4124 -51.4052 -27.7454 -27.7451 -27.5885 -27.5874 -27.5484 -27.5463
    -9.0767  -9.0254  -8.6318  -8.5779  -1.4141  -1.2966  -0.5782  -0.5430
    -0.2687  -0.1700   0.2956   0.4694   1.2907   1.3313   2.1555   2.3346
     3.0121   3.0446   5.7390   6.0741   6.5495   6.5958   6.7005   6.8714
     8.1545   8.1982  10.7400  11.1179  11.3636  11.5137  11.9746  12.3316
    12.6714  13.2069  13.2785  13.6034  14.0263  14.1082  14.4717  14.5519
    14.8184  15.2486  15.3801  15.6971  15.9150  17.2739  17.3269  17.3450
    18.0724  18.2462  18.9474  19.1543

     occupation numbers 
     1.0000   1.0000   1.0000   1.0000   1.0000   1.0000   1.0000   1.0000
     1.0000   1.0000   1.0000   1.0000   1.0000   1.0000   1.0000   1.0000
     1.0000   1.0000   1.0000   1.0000   1.0000   1.0000   1.0000   1.0000
     1.0180   0.9955  -0.0000  -0.0000  -0.0000  -0.0000  -0.0000  -0.0000
    -0.0000  -0.0000  -0.0000  -0.0000  -0.0000  -0.0000  -0.0000  -0.0000
    -0.0000  -0.0000  -0.0000  -0.0000  -0.0000  -0.0000  -0.0000  -0.0000
    -0.0000  -0.0000  -0.0000  -0.0000  -0.0000  -0.0000  -0.0000  -0.0000
    -0.0000  -0.0000  -0.0000  -0.0000

          k = 0.2000 0.5774 0.0000 (  5358 PWs)   bands (ev):

   -51.3998 -51.3924 -27.8221 -27.8217 -27.6234 -27.6217 -27.5611 -27.5596
    -8.5275  -8.4979  -8.4357  -8.4046  -1.5218  -1.4982  -1.4672  -1.4160
    -0.3030  -0.2511   0.5166   0.6086   0.7447   0.8420   1.5781   1.7547
     3.4910   3.5490   5.9901   6.0199   7.0787   7.1784   7.3375   7.3786
     8.1469   8.3480   9.8027  10.4673  11.5536  12.2064  12.2593  12.4703
    12.8661  12.9693  13.2023  13.3572  14.0856  14.2718  14.6164  14.6482
    15.4116  15.4694  16.0513  16.1270  16.4044  16.8939  16.9714  17.0258
    17.8949  17.9816  18.1498  18.8013

     occupation numbers 
     1.0000   1.0000   1.0000   1.0000   1.0000   1.0000   1.0000   1.0000
     1.0000   1.0000   1.0000   1.0000   1.0000   1.0000   1.0000   1.0000
     1.0000   1.0000   1.0000   1.0000   1.0000   1.0000   1.0000   1.0000
     0.0054  -0.0281  -0.0000  -0.0000  -0.0000  -0.0000  -0.0000  -0.0000
    -0.0000  -0.0000  -0.0000  -0.0000  -0.0000  -0.0000  -0.0000  -0.0000
    -0.0000  -0.0000  -0.0000  -0.0000  -0.0000  -0.0000  -0.0000  -0.0000
    -0.0000  -0.0000  -0.0000  -0.0000  -0.0000  -0.0000  -0.0000  -0.0000
    -0.0000  -0.0000  -0.0000  -0.0000

     the Fermi energy is     3.2683 ev

!    total energy              =    -907.91449149 Ry

     total all-electron energy =    -18448.323514 Ry
     estimated scf accuracy    <          4.2E-09 Ry
     smearing contrib. (-TS)   =       0.00238780 Ry
     internal energy E=F+TS    =    -907.91687929 Ry

     The total energy is F=E-TS. E is the sum of the following terms:
     one-electron contribution =   -1048.10224261 Ry
     hartree contribution      =     537.57997738 Ry
     xc contribution           =     -65.32070278 Ry
     ewald contribution        =     256.18108273 Ry
     one-center paw contrib.   =    -588.25499401 Ry
      -> PAW hartree energy AE =     100.84980703 Ry
      -> PAW hartree energy PS =    -100.33574237 Ry
      -> PAW xc energy AE      =    -324.79583033 Ry
      -> PAW xc energy PS      =      30.15506849 Ry
      -> total E_H with PAW    =     538.09404204 Ry
      -> total E_XC with PAW   =    -359.96146462 Ry

     convergence has been achieved in  14 iterations

     Writing output data file ./tmp/NbS2_bi.save/

     init_run     :      2.51s CPU      2.71s WALL (       1 calls)
     electrons    :     80.63s CPU     84.52s WALL (       1 calls)

     Called by init_run:
     wfcinit      :      1.19s CPU      1.20s WALL (       1 calls)
     wfcinit:atom :      0.00s CPU      0.01s WALL (       5 calls)
     wfcinit:wfcr :      1.16s CPU      1.16s WALL (       5 calls)
     potinit      :      0.31s CPU      0.33s WALL (       1 calls)
     hinit0       :      0.60s CPU      0.62s WALL (       1 calls)

     Called by electrons:
     c_bands      :     57.77s CPU     58.29s WALL (      15 calls)
     sum_band     :     15.20s CPU     16.95s WALL (      15 calls)
     v_of_rho     :      0.47s CPU      0.51s WALL (      15 calls)
     v_h          :      0.27s CPU      0.27s WALL (      15 calls)
     v_xc         :      0.20s CPU      0.24s WALL (      15 calls)
     newd         :      5.92s CPU      7.45s WALL (      15 calls)
     PAW_pot      :      0.87s CPU      0.87s WALL (      15 calls)
     mix_rho      :      0.51s CPU      0.53s WALL (      15 calls)

     Called by c_bands:
     init_us_2    :      0.23s CPU      0.24s WALL (     155 calls)
     cegterg      :     57.16s CPU     57.64s WALL (      75 calls)

     Called by sum_band:
     sum_band:wei :      0.01s CPU      0.01s WALL (      15 calls)
     sum_band:loo :      6.39s CPU      6.48s WALL (      15 calls)
     sum_band:buf :      0.10s CPU      0.10s WALL (      75 calls)
     sum_band:ini :      0.11s CPU      0.11s WALL (      75 calls)
     sum_band:cal :      1.63s CPU      1.64s WALL (      75 calls)
     sum_band:bec :      0.01s CPU      0.01s WALL (      75 calls)
     addusdens    :      8.42s CPU     10.06s WALL (      15 calls)
     addusd:skk   :      0.04s CPU      0.05s WALL (      30 calls)
     addusd:dgemm :      3.37s CPU      4.77s WALL (      30 calls)
     addusd:qvan2 :      4.52s CPU      4.53s WALL (      30 calls)

     Called by *egterg:
     cdiaghg      :      2.05s CPU      2.05s WALL (     361 calls)
     cegterg:over :      6.69s CPU      6.70s WALL (     291 calls)
     cegterg:upda :      3.73s CPU      3.74s WALL (     291 calls)
     cegterg:last :     11.22s CPU     11.22s WALL (     142 calls)
     h_psi        :     27.64s CPU     28.05s WALL (     371 calls)
     s_psi        :      3.58s CPU      3.61s WALL (     371 calls)
     g_psi        :      0.07s CPU      0.07s WALL (     291 calls)

     Called by h_psi:
     h_psi:calbec :      4.06s CPU      4.09s WALL (     371 calls)
     vloc_psi     :     19.88s CPU     20.23s WALL (     371 calls)
     add_vuspsi   :      3.50s CPU      3.50s WALL (     371 calls)

     General routines
     calbec       :      5.68s CPU      5.73s WALL (     446 calls)
     fft          :      1.18s CPU      1.23s WALL (      89 calls)
     ffts         :      0.05s CPU      0.05s WALL (      30 calls)
     fftw         :     21.55s CPU     21.94s WALL (   26150 calls)
     interpolate  :      0.23s CPU      0.26s WALL (      15 calls)

     Parallel routines
     fft_scatt_xy :      2.54s CPU      2.58s WALL (   26269 calls)
     fft_scatt_yz :      1.94s CPU      2.01s WALL (   26269 calls)

     PAW routines
     PAW_pot      :      0.87s CPU      0.87s WALL (      15 calls)
     PAW_symme    :      0.00s CPU      0.00s WALL (      30 calls)

     PWSCF        :   1m24.21s CPU   1m28.55s WALL


   This run was terminated on:  16:37:52  14Jun2021            

=------------------------------------------------------------------------------=
   JOB DONE.
=------------------------------------------------------------------------------=
