
     Program PWSCF v.6.6 starts on 14Jun2021 at 17:49:54 

     This program is part of the open-source Quantum ESPRESSO suite
     for quantum simulation of materials; please cite
         "P. Giannozzi et al., J. Phys.:Condens. Matter 21 395502 (2009);
         "P. Giannozzi et al., J. Phys.:Condens. Matter 29 465901 (2017);
          URL http://www.quantum-espresso.org", 
     in publications or presentations arising from this work. More details at
     http://www.quantum-espresso.org/quote

     Parallel version (MPI), running on     2 processors

     MPI processes distributed on     1 nodes
     R & G space division:  proc/nbgrp/npool/nimage =       2
     Fft bands division:     nmany     =       1
     Waiting for input...
     Reading input from standard input

     Current dimensions of program PWSCF are:
     Max number of different atomic species (ntypx) = 10
     Max number of k-points (npk) =  40000
     Max angular momentum in pseudopotentials (lmaxx) =  3
     file Nb.pz-spn-kjpaw_psl.1.0.0.UPF: wavefunction(s)  4S 4P 4D renormalized
     file S.pz-n-kjpaw_psl.0.1.UPF: wavefunction(s)  3P renormalized

     Subspace diagonalization in iterative solution of the eigenvalue problem:
     a serial algorithm will be used


     Parallelization info
     --------------------
     sticks:   dense  smooth     PW     G-vecs:    dense   smooth      PW
     Min         534     210     60                85019    21488    3564
     Max         535     211     61                85022    21517    3589
     Sum        1069     421    121               170041    43005    7153



     bravais-lattice index     =            4
     lattice parameter (alat)  =       6.2006  a.u.
     unit-cell volume          =    1258.4114 (a.u.)^3
     number of atoms/cell      =            6
     number of atomic types    =            2
     number of electrons       =        50.00
     number of Kohn-Sham states=           60
     kinetic-energy cutoff     =      40.0000  Ry
     charge density cutoff     =     400.0000  Ry
     convergence threshold     =      1.0E-08
     mixing beta               =       0.7000
     number of iterations used =            8  plain     mixing
     Exchange-correlation= SLA PZ NOGX NOGC
                           (   1   1   0   0   0   0   0)

     celldm(1)=   6.200569  celldm(2)=   0.000000  celldm(3)=   6.095331
     celldm(4)=   0.000000  celldm(5)=   0.000000  celldm(6)=   0.000000

     crystal axes: (cart. coord. in units of alat)
               a(1) = (   1.000000   0.000000   0.000000 )  
               a(2) = (  -0.500000   0.866025   0.000000 )  
               a(3) = (   0.000000   0.000000   6.095331 )  

     reciprocal axes: (cart. coord. in units 2 pi/alat)
               b(1) = (  1.000000  0.577350 -0.000000 )  
               b(2) = (  0.000000  1.154701  0.000000 )  
               b(3) = (  0.000000 -0.000000  0.164060 )  


     PseudoPot. # 1 for Nb read from file:
     ../Nb.pz-spn-kjpaw_psl.1.0.0.UPF
     MD5 check sum: 38c2e04b3cc915696ca8dc9f46a23270
     Pseudo is Projector augmented-wave + core cor, Zval = 13.0
     Generated using "atomic" code by A. Dal Corso v.6.2.2
     Shape of augmentation charge: PSQ
     Using radial grid of 1227 points,  6 beta functions with: 
                l(1) =   0
                l(2) =   0
                l(3) =   1
                l(4) =   1
                l(5) =   2
                l(6) =   2
     Q(r) pseudized with 0 coefficients 


     PseudoPot. # 2 for S  read from file:
     ../S.pz-n-kjpaw_psl.0.1.UPF
     MD5 check sum: c0b1682311cf098e03f7841691d9a679
     Pseudo is Projector augmented-wave + core cor, Zval =  6.0
     Generated using "atomic" code by A. Dal Corso v.5.0.2 svn rev. 9415
     Shape of augmentation charge: PSQ
     Using radial grid of 1151 points,  4 beta functions with: 
                l(1) =   0
                l(2) =   0
                l(3) =   1
                l(4) =   1
     Q(r) pseudized with 0 coefficients 


     atomic species   valence    mass     pseudopotential
        Nb            13.00    92.90600     Nb( 1.00)
        S              6.00    32.06500     S ( 1.00)

      6 Sym. Ops. (no inversion) found


                                    s                        frac. trans.

      isym =  1     identity                                     

 cryst.   s( 1) = (     1          0          0      )
                  (     0          1          0      )
                  (     0          0          1      )

 cart.    s( 1) = (  1.0000000  0.0000000  0.0000000 )
                  (  0.0000000  1.0000000  0.0000000 )
                  (  0.0000000  0.0000000  1.0000000 )


      isym =  2     120 deg rotation - cryst. axis [0,0,1]       

 cryst.   s( 2) = (     0          1          0      )
                  (    -1         -1          0      )
                  (     0          0          1      )

 cart.    s( 2) = ( -0.5000000 -0.8660254  0.0000000 )
                  (  0.8660254 -0.5000000  0.0000000 )
                  (  0.0000000  0.0000000  1.0000000 )


      isym =  3     120 deg rotation - cryst. axis [0,0,-1]      

 cryst.   s( 3) = (    -1         -1          0      )
                  (     1          0          0      )
                  (     0          0          1      )

 cart.    s( 3) = ( -0.5000000  0.8660254  0.0000000 )
                  ( -0.8660254 -0.5000000  0.0000000 )
                  (  0.0000000  0.0000000  1.0000000 )


      isym =  4     inv. 180 deg rotation - cart. axis [1,0,0]   

 cryst.   s( 4) = (    -1          0          0      )
                  (     1          1          0      )
                  (     0          0          1      )

 cart.    s( 4) = ( -1.0000000  0.0000000  0.0000000 )
                  (  0.0000000  1.0000000  0.0000000 )
                  (  0.0000000  0.0000000  1.0000000 )


      isym =  5     inv. 180 deg rotation - cryst. axis [0,1,0]  

 cryst.   s( 5) = (     1          1          0      )
                  (     0         -1          0      )
                  (     0          0          1      )

 cart.    s( 5) = (  0.5000000  0.8660254  0.0000000 )
                  (  0.8660254 -0.5000000  0.0000000 )
                  (  0.0000000  0.0000000  1.0000000 )


      isym =  6     inv. 180 deg rotation - cryst. axis [1,1,0]  

 cryst.   s( 6) = (     0         -1          0      )
                  (    -1          0          0      )
                  (     0          0          1      )

 cart.    s( 6) = (  0.5000000 -0.8660254  0.0000000 )
                  ( -0.8660254 -0.5000000  0.0000000 )
                  (  0.0000000  0.0000000  1.0000000 )


     point group C_3v (3m)  
     there are  3 classes
     the character table:

       E     2C3   3s_v 
A_1    1.00  1.00  1.00
A_2    1.00  1.00 -1.00
E      2.00 -1.00  0.00

     the symmetry operations in each class and the name of the first element:

     E        1
          identity                                               
     2C3      2    3
          120 deg rotation - cryst. axis [0,0,1]                 
     3s_v     4    5    6
          inv. 180 deg rotation - cart. axis [1,0,0]             

   Cartesian axes

     site n.     atom                  positions (alat units)
         1           S   tau(   1) = (   0.0000000   0.5773503   1.4932768  )
         2           Nb  tau(   2) = (   0.0000000   0.0000000   1.0094618  )
         3           S   tau(   3) = (   0.0000000   0.5773503   0.5321904  )
         4           S   tau(   4) = (   0.5000000   0.2886751   2.5511139  )
         5           Nb  tau(   5) = (   0.0000000   0.0000000   3.0283905  )
         6           S   tau(   6) = (   0.5000000   0.2886751   3.5056620  )

   Crystallographic axes

     site n.     atom                  positions (cryst. coord.)
         1           S   tau(   1) = (  0.3333333  0.6666667  0.2449870  )
         2           Nb  tau(   2) = (  0.0000000  0.0000000  0.1656123  )
         3           S   tau(   3) = (  0.3333333  0.6666667  0.0873112  )
         4           S   tau(   4) = (  0.6666667  0.3333333  0.4185358  )
         5           Nb  tau(   5) = (  0.0000000  0.0000000  0.4968378  )
         6           S   tau(   6) = (  0.6666667  0.3333333  0.5751389  )

     number of k points=    44  Methfessel-Paxton smearing, width (Ry)=  0.0200
                       cart. coord. in units 2pi/alat
        k(    1) = (   0.0000000   0.0000000   0.0000000), wk =   0.0050000
        k(    2) = (   0.0000000   0.0577350   0.0000000), wk =   0.0300000
        k(    3) = (   0.0000000   0.1154701   0.0000000), wk =   0.0300000
        k(    4) = (   0.0000000   0.1732051   0.0000000), wk =   0.0300000
        k(    5) = (   0.0000000   0.2309401   0.0000000), wk =   0.0300000
        k(    6) = (   0.0000000   0.2886751   0.0000000), wk =   0.0300000
        k(    7) = (   0.0000000   0.3464102   0.0000000), wk =   0.0300000
        k(    8) = (   0.0000000   0.4041452   0.0000000), wk =   0.0300000
        k(    9) = (   0.0000000   0.4618802   0.0000000), wk =   0.0300000
        k(   10) = (   0.0000000   0.5196152   0.0000000), wk =   0.0300000
        k(   11) = (   0.0000000  -0.5773503   0.0000000), wk =   0.0150000
        k(   12) = (   0.0500000   0.0866025   0.0000000), wk =   0.0300000
        k(   13) = (   0.0500000   0.1443376   0.0000000), wk =   0.0600000
        k(   14) = (   0.0500000   0.2020726   0.0000000), wk =   0.0600000
        k(   15) = (   0.0500000   0.2598076   0.0000000), wk =   0.0600000
        k(   16) = (   0.0500000   0.3175426   0.0000000), wk =   0.0600000
        k(   17) = (   0.0500000   0.3752777   0.0000000), wk =   0.0600000
        k(   18) = (   0.0500000   0.4330127   0.0000000), wk =   0.0600000
        k(   19) = (   0.0500000   0.4907477   0.0000000), wk =   0.0600000
        k(   20) = (   0.0500000   0.5484828   0.0000000), wk =   0.0600000
        k(   21) = (   0.1000000   0.1732051   0.0000000), wk =   0.0300000
        k(   22) = (   0.1000000   0.2309401   0.0000000), wk =   0.0600000
        k(   23) = (   0.1000000   0.2886751   0.0000000), wk =   0.0600000
        k(   24) = (   0.1000000   0.3464102   0.0000000), wk =   0.0600000
        k(   25) = (   0.1000000   0.4041452   0.0000000), wk =   0.0600000
        k(   26) = (   0.1000000   0.4618802   0.0000000), wk =   0.0600000
        k(   27) = (   0.1000000   0.5196152   0.0000000), wk =   0.0600000
        k(   28) = (   0.1000000   0.5773503   0.0000000), wk =   0.0300000
        k(   29) = (   0.1500000   0.2598076   0.0000000), wk =   0.0300000
        k(   30) = (   0.1500000   0.3175426   0.0000000), wk =   0.0600000
        k(   31) = (   0.1500000   0.3752777   0.0000000), wk =   0.0600000
        k(   32) = (   0.1500000   0.4330127   0.0000000), wk =   0.0600000
        k(   33) = (   0.1500000   0.4907477   0.0000000), wk =   0.0600000
        k(   34) = (   0.1500000   0.5484828   0.0000000), wk =   0.0600000
        k(   35) = (   0.2000000   0.3464102   0.0000000), wk =   0.0300000
        k(   36) = (   0.2000000   0.4041452   0.0000000), wk =   0.0600000
        k(   37) = (   0.2000000   0.4618802   0.0000000), wk =   0.0600000
        k(   38) = (   0.2000000   0.5196152   0.0000000), wk =   0.0600000
        k(   39) = (   0.2000000   0.5773503   0.0000000), wk =   0.0300000
        k(   40) = (   0.2500000   0.4330127   0.0000000), wk =   0.0300000
        k(   41) = (   0.2500000   0.4907477   0.0000000), wk =   0.0600000
        k(   42) = (   0.2500000   0.5484828   0.0000000), wk =   0.0600000
        k(   43) = (   0.3000000   0.5196152   0.0000000), wk =   0.0300000
        k(   44) = (   0.3000000   0.5773503   0.0000000), wk =   0.0300000

                       cryst. coord.
        k(    1) = (   0.0000000   0.0000000   0.0000000), wk =   0.0050000
        k(    2) = (   0.0000000   0.0500000   0.0000000), wk =   0.0300000
        k(    3) = (   0.0000000   0.1000000   0.0000000), wk =   0.0300000
        k(    4) = (   0.0000000   0.1500000   0.0000000), wk =   0.0300000
        k(    5) = (   0.0000000   0.2000000   0.0000000), wk =   0.0300000
        k(    6) = (   0.0000000   0.2500000   0.0000000), wk =   0.0300000
        k(    7) = (   0.0000000   0.3000000   0.0000000), wk =   0.0300000
        k(    8) = (   0.0000000   0.3500000   0.0000000), wk =   0.0300000
        k(    9) = (   0.0000000   0.4000000   0.0000000), wk =   0.0300000
        k(   10) = (   0.0000000   0.4500000   0.0000000), wk =   0.0300000
        k(   11) = (   0.0000000  -0.5000000   0.0000000), wk =   0.0150000
        k(   12) = (   0.0500000   0.0500000   0.0000000), wk =   0.0300000
        k(   13) = (   0.0500000   0.1000000   0.0000000), wk =   0.0600000
        k(   14) = (   0.0500000   0.1500000   0.0000000), wk =   0.0600000
        k(   15) = (   0.0500000   0.2000000   0.0000000), wk =   0.0600000
        k(   16) = (   0.0500000   0.2500000   0.0000000), wk =   0.0600000
        k(   17) = (   0.0500000   0.3000000   0.0000000), wk =   0.0600000
        k(   18) = (   0.0500000   0.3500000   0.0000000), wk =   0.0600000
        k(   19) = (   0.0500000   0.4000000   0.0000000), wk =   0.0600000
        k(   20) = (   0.0500000   0.4500000   0.0000000), wk =   0.0600000
        k(   21) = (   0.1000000   0.1000000   0.0000000), wk =   0.0300000
        k(   22) = (   0.1000000   0.1500000   0.0000000), wk =   0.0600000
        k(   23) = (   0.1000000   0.2000000   0.0000000), wk =   0.0600000
        k(   24) = (   0.1000000   0.2500000   0.0000000), wk =   0.0600000
        k(   25) = (   0.1000000   0.3000000   0.0000000), wk =   0.0600000
        k(   26) = (   0.1000000   0.3500000   0.0000000), wk =   0.0600000
        k(   27) = (   0.1000000   0.4000000   0.0000000), wk =   0.0600000
        k(   28) = (   0.1000000   0.4500000   0.0000000), wk =   0.0300000
        k(   29) = (   0.1500000   0.1500000   0.0000000), wk =   0.0300000
        k(   30) = (   0.1500000   0.2000000   0.0000000), wk =   0.0600000
        k(   31) = (   0.1500000   0.2500000   0.0000000), wk =   0.0600000
        k(   32) = (   0.1500000   0.3000000   0.0000000), wk =   0.0600000
        k(   33) = (   0.1500000   0.3500000   0.0000000), wk =   0.0600000
        k(   34) = (   0.1500000   0.4000000   0.0000000), wk =   0.0600000
        k(   35) = (   0.2000000   0.2000000   0.0000000), wk =   0.0300000
        k(   36) = (   0.2000000   0.2500000   0.0000000), wk =   0.0600000
        k(   37) = (   0.2000000   0.3000000   0.0000000), wk =   0.0600000
        k(   38) = (   0.2000000   0.3500000   0.0000000), wk =   0.0600000
        k(   39) = (   0.2000000   0.4000000   0.0000000), wk =   0.0300000
        k(   40) = (   0.2500000   0.2500000   0.0000000), wk =   0.0300000
        k(   41) = (   0.2500000   0.3000000   0.0000000), wk =   0.0600000
        k(   42) = (   0.2500000   0.3500000   0.0000000), wk =   0.0600000
        k(   43) = (   0.3000000   0.3000000   0.0000000), wk =   0.0300000
        k(   44) = (   0.3000000   0.3500000   0.0000000), wk =   0.0300000

     Dense  grid:   170041 G-vectors     FFT dimensions: (  40,  40, 243)

     Smooth grid:    43005 G-vectors     FFT dimensions: (  25,  25, 160)

     Dynamical RAM for                 wfc:       2.46 MB

     Dynamical RAM for     wfc (w. buffer):     110.74 MB

     Dynamical RAM for           str. fact:       2.59 MB

     Dynamical RAM for           local pot:       0.00 MB

     Dynamical RAM for          nlocal pot:       2.79 MB

     Dynamical RAM for                qrad:       3.21 MB

     Dynamical RAM for          rho,v,vnew:       8.36 MB

     Dynamical RAM for               rhoin:       2.79 MB

     Dynamical RAM for            rho*nmix:      20.76 MB

     Dynamical RAM for           G-vectors:       5.03 MB

     Dynamical RAM for          h,s,v(r/c):       0.66 MB

     Dynamical RAM for          <psi|beta>:       0.06 MB

     Dynamical RAM for                 psi:       4.92 MB

     Dynamical RAM for                hpsi:       4.92 MB

     Dynamical RAM for                spsi:       4.92 MB

     Dynamical RAM for      wfcinit/wfcrot:       5.00 MB

     Dynamical RAM for           addusdens:     246.48 MB

     Estimated static dynamical RAM per process >     167.61 MB

     Estimated max dynamical RAM per process >     414.09 MB

     Estimated total dynamical RAM >     828.18 MB

     Initial potential from superposition of free atoms

     starting charge   49.99775, renormalised to   50.00000

     negative rho (up, down):  7.872E-05 0.000E+00
     Starting wfcs are   42 randomized atomic wfcs +   18 random wfcs
     Checking if some PAW data can be deallocated... 

     total cpu time spent up to now is       13.4 secs

     Self-consistent Calculation

     iteration #  1     ecut=    40.00 Ry     beta= 0.70
     Davidson diagonalization with overlap
     ethr =  1.00E-02,  avg # of iterations =  7.7

     Threshold (ethr) on eigenvalues was too large:
     Diagonalizing with lowered threshold

     Davidson diagonalization with overlap
     ethr =  5.35E-04,  avg # of iterations =  2.1

     negative rho (up, down):  1.253E-04 0.000E+00

     total cpu time spent up to now is      121.5 secs

     total energy              =    -907.81148904 Ry
     estimated scf accuracy    <       0.26864804 Ry

     iteration #  2     ecut=    40.00 Ry     beta= 0.70
     Davidson diagonalization with overlap
     ethr =  5.37E-04,  avg # of iterations =  6.4

     negative rho (up, down):  1.426E-04 0.000E+00

     total cpu time spent up to now is      169.6 secs

     total energy              =    -907.49718159 Ry
     estimated scf accuracy    <       2.98584098 Ry

     iteration #  3     ecut=    40.00 Ry     beta= 0.70
     Davidson diagonalization with overlap
     ethr =  5.37E-04,  avg # of iterations =  7.6

     negative rho (up, down):  1.216E-04 0.000E+00

     total cpu time spent up to now is      217.5 secs

     total energy              =    -906.81649674 Ry
     estimated scf accuracy    <      40.50729719 Ry

     iteration #  4     ecut=    40.00 Ry     beta= 0.70
     Davidson diagonalization with overlap
     ethr =  5.37E-04,  avg # of iterations =  7.1

     negative rho (up, down):  1.217E-04 0.000E+00

     total cpu time spent up to now is      263.9 secs

     total energy              =    -907.89523566 Ry
     estimated scf accuracy    <       0.13752582 Ry

     iteration #  5     ecut=    40.00 Ry     beta= 0.70
     Davidson diagonalization with overlap
     ethr =  2.75E-04,  avg # of iterations =  2.1

     negative rho (up, down):  1.241E-04 0.000E+00

     total cpu time spent up to now is      300.3 secs

     total energy              =    -907.90742434 Ry
     estimated scf accuracy    <       0.10789977 Ry

     iteration #  6     ecut=    40.00 Ry     beta= 0.70
     Davidson diagonalization with overlap
     ethr =  2.16E-04,  avg # of iterations =  1.6

     negative rho (up, down):  1.257E-04 0.000E+00

     total cpu time spent up to now is      333.0 secs

     total energy              =    -907.90759542 Ry
     estimated scf accuracy    <       0.06008501 Ry

     iteration #  7     ecut=    40.00 Ry     beta= 0.70
     Davidson diagonalization with overlap
     ethr =  1.20E-04,  avg # of iterations =  1.5

     negative rho (up, down):  1.276E-04 0.000E+00

     total cpu time spent up to now is      365.6 secs

     total energy              =    -907.91060521 Ry
     estimated scf accuracy    <       0.01339695 Ry

     iteration #  8     ecut=    40.00 Ry     beta= 0.70
     Davidson diagonalization with overlap
     ethr =  2.68E-05,  avg # of iterations =  4.9

     negative rho (up, down):  1.293E-04 0.000E+00

     total cpu time spent up to now is      402.3 secs

     total energy              =    -907.91124995 Ry
     estimated scf accuracy    <       0.00150389 Ry

     iteration #  9     ecut=    40.00 Ry     beta= 0.70
     Davidson diagonalization with overlap
     ethr =  3.01E-06,  avg # of iterations =  8.4

     negative rho (up, down):  1.317E-04 0.000E+00

     total cpu time spent up to now is      443.5 secs

     total energy              =    -907.91126704 Ry
     estimated scf accuracy    <       0.00388229 Ry

     iteration # 10     ecut=    40.00 Ry     beta= 0.70
     Davidson diagonalization with overlap
     ethr =  3.01E-06,  avg # of iterations =  1.0

     negative rho (up, down):  1.317E-04 0.000E+00

     total cpu time spent up to now is      474.3 secs

     total energy              =    -907.91146112 Ry
     estimated scf accuracy    <       0.00180454 Ry

     iteration # 11     ecut=    40.00 Ry     beta= 0.70
     Davidson diagonalization with overlap
     ethr =  3.01E-06,  avg # of iterations =  1.0

     negative rho (up, down):  1.320E-04 0.000E+00

     total cpu time spent up to now is      504.9 secs

     total energy              =    -907.91149554 Ry
     estimated scf accuracy    <       0.00008585 Ry

     iteration # 12     ecut=    40.00 Ry     beta= 0.70
     Davidson diagonalization with overlap
     ethr =  1.72E-07,  avg # of iterations =  1.0

     negative rho (up, down):  1.321E-04 0.000E+00

     total cpu time spent up to now is      535.6 secs

     total energy              =    -907.91149685 Ry
     estimated scf accuracy    <       0.00000077 Ry

     iteration # 13     ecut=    40.00 Ry     beta= 0.70
     Davidson diagonalization with overlap
     ethr =  1.53E-09,  avg # of iterations =  1.0

     negative rho (up, down):  1.321E-04 0.000E+00

     total cpu time spent up to now is      566.5 secs

     total energy              =    -907.91149687 Ry
     estimated scf accuracy    <       0.00000002 Ry

     iteration # 14     ecut=    40.00 Ry     beta= 0.70
     Davidson diagonalization with overlap
     ethr =  3.38E-11,  avg # of iterations =  2.6

     negative rho (up, down):  1.321E-04 0.000E+00

     total cpu time spent up to now is      604.8 secs

     End of self-consistent calculation

          k = 0.0000 0.0000 0.0000 (  5429 PWs)   bands (ev):

   -51.4504 -51.4367 -27.6631 -27.6560 -27.4326 -27.4326 -27.4232 -27.4232
   -10.3511 -10.2864  -9.0610  -8.9610  -2.1130  -1.8088   0.9723   0.9723
     1.0229   1.0229   1.3931   2.0768   2.0768   2.1167   2.1167   2.1291
     3.8434   4.2769   6.3256   6.3256   6.3686   6.3686   6.5028   6.5028
     6.5370   6.5370   8.5508   8.7284   9.0065   9.6094  11.3532  11.5626
    11.6238  11.9812  13.8544  13.8544  13.8796  13.8796  14.0207  15.7614
    15.7996  15.7996  16.0490  16.0490  16.1263  17.1020  18.0536  18.5255
    18.6688  18.6688  18.8018  19.1718

     occupation numbers 
     1.0000   1.0000   1.0000   1.0000   1.0000   1.0000   1.0000   1.0000
     1.0000   1.0000   1.0000   1.0000   1.0000   1.0000   1.0000   1.0000
     1.0000   1.0000   1.0000   1.0000   1.0000   1.0000   1.0000   1.0000
    -0.0024  -0.0000  -0.0000  -0.0000  -0.0000  -0.0000  -0.0000  -0.0000
    -0.0000  -0.0000  -0.0000  -0.0000  -0.0000  -0.0000  -0.0000  -0.0000
    -0.0000  -0.0000  -0.0000  -0.0000  -0.0000  -0.0000  -0.0000  -0.0000
    -0.0000  -0.0000  -0.0000  -0.0000  -0.0000  -0.0000  -0.0000  -0.0000
    -0.0000  -0.0000  -0.0000  -0.0000

          k = 0.0000 0.0577 0.0000 (  5409 PWs)   bands (ev):

   -51.4493 -51.4356 -27.6607 -27.6535 -27.4439 -27.4351 -27.4346 -27.4257
   -10.3165 -10.2519  -9.0496  -8.9508  -2.0714  -1.7674   0.8782   0.9276
     1.0076   1.0577   1.2763   1.7726   2.0160   2.0564   2.1558   2.3794
     3.8294   4.2303   6.2968   6.3262   6.3863   6.4170   6.4421   6.4619
     6.4836   6.5073   8.6897   8.8966   9.1035   9.6754  11.4146  11.6747
    11.7990  12.0694  13.6481  13.7777  13.9584  13.9920  14.1311  15.4467
    15.6872  15.7851  15.8575  16.0530  16.1393  17.1118  17.9985  18.5038
    18.7012  18.8922  19.0816  19.1173

     occupation numbers 
     1.0000   1.0000   1.0000   1.0000   1.0000   1.0000   1.0000   1.0000
     1.0000   1.0000   1.0000   1.0000   1.0000   1.0000   1.0000   1.0000
     1.0000   1.0000   1.0000   1.0000   1.0000   1.0000   1.0000   1.0001
    -0.0029  -0.0000  -0.0000  -0.0000  -0.0000  -0.0000  -0.0000  -0.0000
    -0.0000  -0.0000  -0.0000  -0.0000  -0.0000  -0.0000  -0.0000  -0.0000
    -0.0000  -0.0000  -0.0000  -0.0000  -0.0000  -0.0000  -0.0000  -0.0000
    -0.0000  -0.0000  -0.0000  -0.0000  -0.0000  -0.0000  -0.0000  -0.0000
    -0.0000  -0.0000  -0.0000  -0.0000

          k = 0.0000 0.1155 0.0000 (  5395 PWs)   bands (ev):

   -51.4461 -51.4324 -27.6538 -27.6466 -27.4767 -27.4677 -27.4423 -27.4330
   -10.2147 -10.1509  -9.0160  -8.9208  -1.9521  -1.6491   0.6254   0.6716
     1.0141   1.1101   1.1590   1.3958   1.8511   1.8929   2.2268   2.5357
     3.7722   4.0835   6.1559   6.2579   6.2696   6.3558   6.3669   6.4251
     6.6159   6.6463   8.9619   9.3199   9.4638   9.8939  11.5736  11.8554
    12.2631  12.4114  13.2963  13.5229  14.2613  14.2650  14.3130  14.7888
    15.0840  15.7650  15.8578  16.0659  16.0763  17.1423  17.6193  18.3392
    18.5305  18.6820  18.9834  19.0210

     occupation numbers 
     1.0000   1.0000   1.0000   1.0000   1.0000   1.0000   1.0000   1.0000
     1.0000   1.0000   1.0000   1.0000   1.0000   1.0000   1.0000   1.0000
     1.0000   1.0000   1.0000   1.0000   1.0000   1.0000   1.0000   1.0013
    -0.0063  -0.0000  -0.0000  -0.0000  -0.0000  -0.0000  -0.0000  -0.0000
    -0.0000  -0.0000  -0.0000  -0.0000  -0.0000  -0.0000  -0.0000  -0.0000
    -0.0000  -0.0000  -0.0000  -0.0000  -0.0000  -0.0000  -0.0000  -0.0000
    -0.0000  -0.0000  -0.0000  -0.0000  -0.0000  -0.0000  -0.0000  -0.0000
    -0.0000  -0.0000  -0.0000  -0.0000

          k = 0.0000 0.1732 0.0000 (  5361 PWs)   bands (ev):

   -51.4411 -51.4274 -27.6430 -27.6357 -27.5275 -27.5189 -27.4536 -27.4443
   -10.0525  -9.9899  -8.9624  -8.8730  -1.7745  -1.4756   0.2834   0.3249
     0.6947   0.9978   1.2702   1.3151   1.6212   1.6667   2.2164   2.5589
     3.6359   3.8345   5.9302   6.1865   6.2564   6.2603   6.3180   6.3933
     6.8877   6.9279   9.2340   9.7529  10.0607  10.3794  11.7990  11.9727
    12.8167  12.8599  12.9808  13.1951  14.1331  14.3593  14.6992  14.7289
    14.8043  15.6406  15.7872  15.8924  16.1498  17.0551  17.1575  17.9898
    18.0236  18.3970  18.5883  18.9922

     occupation numbers 
     1.0000   1.0000   1.0000   1.0000   1.0000   1.0000   1.0000   1.0000
     1.0000   1.0000   1.0000   1.0000   1.0000   1.0000   1.0000   1.0000
     1.0000   1.0000   1.0000   1.0000   1.0000   1.0000   1.0000   1.0019
    -0.0244  -0.0027  -0.0000  -0.0000  -0.0000  -0.0000  -0.0000  -0.0000
    -0.0000  -0.0000  -0.0000  -0.0000  -0.0000  -0.0000  -0.0000  -0.0000
    -0.0000  -0.0000  -0.0000  -0.0000  -0.0000  -0.0000  -0.0000  -0.0000
    -0.0000  -0.0000  -0.0000  -0.0000  -0.0000  -0.0000  -0.0000  -0.0000
    -0.0000  -0.0000  -0.0000  -0.0000

          k = 0.0000 0.2309 0.0000 (  5379 PWs)   bands (ev):

   -51.4349 -51.4211 -27.6295 -27.6219 -27.5908 -27.5828 -27.4678 -27.4586
    -9.8408  -9.7802  -8.8925  -8.8108  -1.5815  -1.2979  -0.0628  -0.0288
     0.3515   0.5926   1.3651   1.3919   1.4721   1.5351   2.1148   2.4698
     3.4017   3.5192   5.8137   6.1595   6.1693   6.2168   6.3715   6.5692
     7.1852   7.2365   9.5392  10.0748  10.6187  11.0771  11.9932  12.1545
    12.6448  12.8230  12.8499  13.1660  14.1286  14.3786  14.8497  15.2705
    15.2881  15.3987  15.6765  15.8916  16.3063  16.6666  16.9302  17.4591
    17.6036  18.0583  18.1936  18.9427

     occupation numbers 
     1.0000   1.0000   1.0000   1.0000   1.0000   1.0000   1.0000   1.0000
     1.0000   1.0000   1.0000   1.0000   1.0000   1.0000   1.0000   1.0000
     1.0000   1.0000   1.0000   1.0000   1.0000   1.0000   1.0000   1.0004
     0.0365  -0.0343  -0.0000  -0.0000  -0.0000  -0.0000  -0.0000  -0.0000
    -0.0000  -0.0000  -0.0000  -0.0000  -0.0000  -0.0000  -0.0000  -0.0000
    -0.0000  -0.0000  -0.0000  -0.0000  -0.0000  -0.0000  -0.0000  -0.0000
    -0.0000  -0.0000  -0.0000  -0.0000  -0.0000  -0.0000  -0.0000  -0.0000
    -0.0000  -0.0000  -0.0000  -0.0000

          k = 0.0000 0.2887 0.0000 (  5369 PWs)   bands (ev):

   -51.4279 -51.4141 -27.6603 -27.6528 -27.6143 -27.6067 -27.4834 -27.4743
    -9.5946  -9.5371  -8.8114  -8.7390  -1.4600  -1.2274  -0.3174  -0.2776
     0.0052   0.1960   1.1151   1.1538   1.6911   1.7411   1.9640   2.3235
     3.1215   3.2095   5.8429   6.0982   6.1515   6.2326   6.5844   6.8234
     7.4631   7.5287   9.8830  10.3586  10.8730  11.5681  11.8468  12.3054
    12.4097  12.5207  12.9546  13.1256  14.2722  14.8095  14.9668  15.2103
    15.5401  15.6998  15.8679  16.1388  16.5351  16.5726  16.6869  17.1236
    17.3802  17.6500  17.9830  19.0789

     occupation numbers 
     1.0000   1.0000   1.0000   1.0000   1.0000   1.0000   1.0000   1.0000
     1.0000   1.0000   1.0000   1.0000   1.0000   1.0000   1.0000   1.0000
     1.0000   1.0000   1.0000   1.0000   1.0000   1.0000   1.0000   1.0000
     0.7556   0.4967  -0.0000  -0.0000  -0.0000  -0.0000  -0.0000  -0.0000
    -0.0000  -0.0000  -0.0000  -0.0000  -0.0000  -0.0000  -0.0000  -0.0000
    -0.0000  -0.0000  -0.0000  -0.0000  -0.0000  -0.0000  -0.0000  -0.0000
    -0.0000  -0.0000  -0.0000  -0.0000  -0.0000  -0.0000  -0.0000  -0.0000
    -0.0000  -0.0000  -0.0000  -0.0000

          k = 0.0000 0.3464 0.0000 (  5377 PWs)   bands (ev):

   -51.4209 -51.4070 -27.7289 -27.7219 -27.5992 -27.5913 -27.4991 -27.4901
    -9.3337  -9.2807  -8.7262  -8.6641  -1.5112  -1.3630  -0.4512  -0.3475
    -0.2880  -0.1588   0.8904   0.9311   1.8128   1.9021   1.9497   2.1718
     2.9030   2.9863   5.9868   6.0971   6.1426   6.3536   6.8361   7.0920
     7.6940   7.7759  10.2283  10.6049  10.9065  11.3380  11.5442  12.0131
    12.0495  12.7273  13.1010  13.6137  14.2322  14.8656  15.1237  15.2115
    15.4675  15.7849  15.7852  16.5299  16.6371  16.8344  17.0020  17.4988
    17.5055  17.7853  17.9492  18.3305

     occupation numbers 
     1.0000   1.0000   1.0000   1.0000   1.0000   1.0000   1.0000   1.0000
     1.0000   1.0000   1.0000   1.0000   1.0000   1.0000   1.0000   1.0000
     1.0000   1.0000   1.0000   1.0000   1.0000   1.0000   1.0000   1.0000
     1.0336   0.9941  -0.0000  -0.0000  -0.0000  -0.0000  -0.0000  -0.0000
    -0.0000  -0.0000  -0.0000  -0.0000  -0.0000  -0.0000  -0.0000  -0.0000
    -0.0000  -0.0000  -0.0000  -0.0000  -0.0000  -0.0000  -0.0000  -0.0000
    -0.0000  -0.0000  -0.0000  -0.0000  -0.0000  -0.0000  -0.0000  -0.0000
    -0.0000  -0.0000  -0.0000  -0.0000

          k = 0.0000 0.4041 0.0000 (  5387 PWs)   bands (ev):

   -51.4146 -51.4007 -27.7900 -27.7836 -27.5855 -27.5775 -27.5131 -27.5042
    -9.0826  -9.0357  -8.6450  -8.5935  -1.6933  -1.6020  -0.6788  -0.5352
    -0.3551  -0.2853   0.7048   0.7464   1.6906   2.0454   2.0803   2.1277
     2.8226   2.9155   6.1588   6.1933   6.2010   6.5065   7.0616   7.3197
     7.8668   7.9648  10.4424  10.6535  10.7999  11.0085  11.1857  11.7885
    11.9317  12.8252  13.1585  13.9196  14.0337  14.7251  14.9317  15.0168
    15.3080  15.5111  16.3737  16.7611  16.9614  17.1663  17.2712  17.5415
    18.2144  18.2424  18.2464  18.4186

     occupation numbers 
     1.0000   1.0000   1.0000   1.0000   1.0000   1.0000   1.0000   1.0000
     1.0000   1.0000   1.0000   1.0000   1.0000   1.0000   1.0000   1.0000
     1.0000   1.0000   1.0000   1.0000   1.0000   1.0000   1.0000   1.0000
     1.0311   1.0314  -0.0000  -0.0000  -0.0000  -0.0000  -0.0000  -0.0000
    -0.0000  -0.0000  -0.0000  -0.0000  -0.0000  -0.0000  -0.0000  -0.0000
    -0.0000  -0.0000  -0.0000  -0.0000  -0.0000  -0.0000  -0.0000  -0.0000
    -0.0000  -0.0000  -0.0000  -0.0000  -0.0000  -0.0000  -0.0000  -0.0000
    -0.0000  -0.0000  -0.0000  -0.0000

          k = 0.0000 0.4619 0.0000 (  5375 PWs)   bands (ev):

   -51.4096 -51.3957 -27.8381 -27.8320 -27.5746 -27.5664 -27.5242 -27.5153
    -8.8699  -8.8302  -8.5769  -8.5355  -1.8865  -1.8252  -0.9102  -0.7776
    -0.3706  -0.3218   0.5671   0.6093   1.6074   1.9567   2.2098   2.2587
     2.8769   2.9854   6.2599   6.2828   6.4463   6.6664   7.2102   7.4779
     7.9824   8.0940  10.0086  10.2876  10.9310  10.9952  11.1729  11.6723
    12.0204  12.8694  13.2792  13.6547  13.8434  14.3399  14.4245  14.8078
    15.2125  15.6189  16.3208  17.0293  17.1279  17.4041  17.6101  18.1128
    18.1541  18.6410  18.9784  19.0865

     occupation numbers 
     1.0000   1.0000   1.0000   1.0000   1.0000   1.0000   1.0000   1.0000
     1.0000   1.0000   1.0000   1.0000   1.0000   1.0000   1.0000   1.0000
     1.0000   1.0000   1.0000   1.0000   1.0000   1.0000   1.0000   1.0000
     1.0355   0.9949  -0.0000  -0.0000  -0.0000  -0.0000  -0.0000  -0.0000
    -0.0000  -0.0000  -0.0000  -0.0000  -0.0000  -0.0000  -0.0000  -0.0000
    -0.0000  -0.0000  -0.0000  -0.0000  -0.0000  -0.0000  -0.0000  -0.0000
    -0.0000  -0.0000  -0.0000  -0.0000  -0.0000  -0.0000  -0.0000  -0.0000
    -0.0000  -0.0000  -0.0000  -0.0000

          k = 0.0000 0.5196 0.0000 (  5378 PWs)   bands (ev):

   -51.4064 -51.3924 -27.8688 -27.8630 -27.5676 -27.5593 -27.5313 -27.5225
    -8.7255  -8.6928  -8.5310  -8.4971  -2.0229  -1.9777  -1.0623  -0.9361
    -0.4016  -0.3698   0.4825   0.5250   1.5612   1.9056   2.2861   2.3369
     2.9845   3.0977   6.3543   6.3684   6.6768   6.7944   7.2719   7.5644
     8.0473   8.1680   9.4873   9.9562  11.0011  11.0626  11.3208  11.6594
    12.2381  12.7806  13.3197  13.5388  13.5768  14.0708  14.2156  14.4514
    15.1381  15.2524  16.2660  16.9647  17.4761  17.7541  17.8353  18.4036
    18.6083  18.9211  19.5235  19.7623

     occupation numbers 
     1.0000   1.0000   1.0000   1.0000   1.0000   1.0000   1.0000   1.0000
     1.0000   1.0000   1.0000   1.0000   1.0000   1.0000   1.0000   1.0000
     1.0000   1.0000   1.0000   1.0000   1.0000   1.0000   1.0000   1.0000
     0.9957   0.8147  -0.0000  -0.0000  -0.0000  -0.0000  -0.0000  -0.0000
    -0.0000  -0.0000  -0.0000  -0.0000  -0.0000  -0.0000  -0.0000  -0.0000
    -0.0000  -0.0000  -0.0000  -0.0000  -0.0000  -0.0000  -0.0000  -0.0000
    -0.0000  -0.0000  -0.0000  -0.0000  -0.0000  -0.0000  -0.0000  -0.0000
    -0.0000  -0.0000  -0.0000  -0.0000

          k = 0.0000-0.5774 0.0000 (  5356 PWs)   bands (ev):

   -51.4053 -51.3913 -27.8793 -27.8736 -27.5651 -27.5569 -27.5337 -27.5249
    -8.6740  -8.6445  -8.5147  -8.4837  -2.0714  -2.0318  -1.1151  -0.9908
    -0.4180  -0.3913   0.4540   0.4966   1.5467   1.8891   2.3110   2.3626
     3.0374   3.1488   6.3930   6.4039   6.8034   6.8256   7.2818   7.5903
     8.0680   8.1919   9.2808   9.8089  11.0361  11.0819  11.4860  11.5720
    12.5084  12.5656  13.1759  13.4008  13.9205  13.9441  14.0406  14.3231
    14.9984  15.0472  16.4065  16.8388  17.6639  17.7161  17.8908  18.6577
    18.8244  19.0706  19.7288  20.0000

     occupation numbers 
     1.0000   1.0000   1.0000   1.0000   1.0000   1.0000   1.0000   1.0000
     1.0000   1.0000   1.0000   1.0000   1.0000   1.0000   1.0000   1.0000
     1.0000   1.0000   1.0000   1.0000   1.0000   1.0000   1.0000   1.0001
     0.9324   0.6806  -0.0000  -0.0000  -0.0000  -0.0000  -0.0000  -0.0000
    -0.0000  -0.0000  -0.0000  -0.0000  -0.0000  -0.0000  -0.0000  -0.0000
    -0.0000  -0.0000  -0.0000  -0.0000  -0.0000  -0.0000  -0.0000  -0.0000
    -0.0000  -0.0000  -0.0000  -0.0000  -0.0000  -0.0000  -0.0000  -0.0000
    -0.0000  -0.0000  -0.0000  -0.0000

          k = 0.0500 0.0866 0.0000 (  5385 PWs)   bands (ev):

   -51.4472 -51.4334 -27.6560 -27.6488 -27.4658 -27.4567 -27.4402 -27.4308
   -10.2483 -10.1842  -9.0271  -8.9306  -1.9908  -1.6874   0.7060   0.7531
     1.0752   1.0960   1.1247   1.5075   1.8855   1.9251   2.2308   2.5175
     3.7940   4.1334   6.2203   6.2633   6.2875   6.3575   6.3993   6.4518
     6.5637   6.5924   8.8897   9.1939   9.3373   9.8159  11.5246  11.8142
    12.1180  12.2940  13.3958  13.6180  14.1175  14.1657  14.2978  14.9827
    15.2535  15.7201  15.8987  16.0248  16.1150  17.1425  17.8274  18.4265
    18.5338  18.8622  18.9157  19.0475

     occupation numbers 
     1.0000   1.0000   1.0000   1.0000   1.0000   1.0000   1.0000   1.0000
     1.0000   1.0000   1.0000   1.0000   1.0000   1.0000   1.0000   1.0000
     1.0000   1.0000   1.0000   1.0000   1.0000   1.0000   1.0000   1.0010
    -0.0047  -0.0000  -0.0000  -0.0000  -0.0000  -0.0000  -0.0000  -0.0000
    -0.0000  -0.0000  -0.0000  -0.0000  -0.0000  -0.0000  -0.0000  -0.0000
    -0.0000  -0.0000  -0.0000  -0.0000  -0.0000  -0.0000  -0.0000  -0.0000
    -0.0000  -0.0000  -0.0000  -0.0000  -0.0000  -0.0000  -0.0000  -0.0000
    -0.0000  -0.0000  -0.0000  -0.0000

          k = 0.0500 0.1443 0.0000 (  5373 PWs)   bands (ev):

   -51.4431 -51.4293 -27.6472 -27.6399 -27.5070 -27.4982 -27.4500 -27.4407
   -10.1163 -10.0531  -8.9835  -8.8917  -1.8412  -1.5400   0.4122   0.4556
     0.8270   1.1635   1.2036   1.2504   1.6486   1.6904   2.2863   2.6033
     3.6977   3.9341   6.0071   6.1923   6.2207   6.2765   6.3178   6.3847
     6.8106   6.8519   9.1386   9.6222   9.8456  10.1698  11.7165  11.9420
    12.6386  12.7415  13.0703  13.3533  14.2237  14.4175  14.5296  14.5917
    14.7767  15.6063  15.8262  15.9537  16.0810  17.1902  17.4803  18.0342
    18.2513  18.5224  18.5974  19.1751

     occupation numbers 
     1.0000   1.0000   1.0000   1.0000   1.0000   1.0000   1.0000   1.0000
     1.0000   1.0000   1.0000   1.0000   1.0000   1.0000   1.0000   1.0000
     1.0000   1.0000   1.0000   1.0000   1.0000   1.0000   1.0000   1.0036
    -0.0145  -0.0005  -0.0000  -0.0000  -0.0000  -0.0000  -0.0000  -0.0000
    -0.0000  -0.0000  -0.0000  -0.0000  -0.0000  -0.0000  -0.0000  -0.0000
    -0.0000  -0.0000  -0.0000  -0.0000  -0.0000  -0.0000  -0.0000  -0.0000
    -0.0000  -0.0000  -0.0000  -0.0000  -0.0000  -0.0000  -0.0000  -0.0000
    -0.0000  -0.0000  -0.0000  -0.0000

          k = 0.0500 0.2021 0.0000 (  5370 PWs)   bands (ev):

   -51.4375 -51.4237 -27.6351 -27.6276 -27.5632 -27.5549 -27.4636 -27.4544
    -9.9292  -9.8676  -8.9216  -8.8366  -1.6515  -1.3585   0.0724   0.1098
     0.5172   0.7869   1.3623   1.3766   1.3836   1.4603   2.2554   2.5789
     3.5115   3.6491   5.8322   6.1072   6.2017   6.2579   6.2815   6.4352
     7.1116   7.1615   9.4195   9.9693  10.4623  10.8103  11.9619  12.0480
    12.7298  13.0053  13.0196  13.1491  14.0822  14.1961  14.6489  14.9510
    15.0705  15.5544  15.5715  15.9077  16.1141  17.0274  17.1843  17.4440
    17.8999  18.0788  18.3941  19.1726

     occupation numbers 
     1.0000   1.0000   1.0000   1.0000   1.0000   1.0000   1.0000   1.0000
     1.0000   1.0000   1.0000   1.0000   1.0000   1.0000   1.0000   1.0000
     1.0000   1.0000   1.0000   1.0000   1.0000   1.0000   1.0000   1.0026
    -0.0333  -0.0222  -0.0000  -0.0000  -0.0000  -0.0000  -0.0000  -0.0000
    -0.0000  -0.0000  -0.0000  -0.0000  -0.0000  -0.0000  -0.0000  -0.0000
    -0.0000  -0.0000  -0.0000  -0.0000  -0.0000  -0.0000  -0.0000  -0.0000
    -0.0000  -0.0000  -0.0000  -0.0000  -0.0000  -0.0000  -0.0000  -0.0000
    -0.0000  -0.0000  -0.0000  -0.0000

          k = 0.0500 0.2598 0.0000 (  5369 PWs)   bands (ev):

   -51.4308 -51.4170 -27.6287 -27.6209 -27.6206 -27.6131 -27.4795 -27.4704
    -9.6999  -9.6409  -8.8458  -8.7693  -1.4838  -1.2207  -0.2221  -0.1924
     0.1818   0.3911   1.0989   1.1516   1.5697   1.6196   2.1416   2.4640
     3.2517   3.3368   5.7744   6.0517   6.1582   6.2757   6.4262   6.6308
     7.4099   7.4671   9.7470  10.2663  10.8871  11.4758  11.9844  12.3793
    12.4894  12.6998  12.7675  13.1677  14.2594  14.5199  14.9165  15.0001
    15.2428  15.6166  15.7598  16.0007  16.2019  16.6009  16.9262  17.2013
    17.5788  17.7482  18.2610  19.1649

     occupation numbers 
     1.0000   1.0000   1.0000   1.0000   1.0000   1.0000   1.0000   1.0000
     1.0000   1.0000   1.0000   1.0000   1.0000   1.0000   1.0000   1.0000
     1.0000   1.0000   1.0000   1.0000   1.0000   1.0000   1.0000   1.0004
     0.3672   0.1459  -0.0000  -0.0000  -0.0000  -0.0000  -0.0000  -0.0000
    -0.0000  -0.0000  -0.0000  -0.0000  -0.0000  -0.0000  -0.0000  -0.0000
    -0.0000  -0.0000  -0.0000  -0.0000  -0.0000  -0.0000  -0.0000  -0.0000
    -0.0000  -0.0000  -0.0000  -0.0000  -0.0000  -0.0000  -0.0000  -0.0000
    -0.0000  -0.0000  -0.0000  -0.0000

          k = 0.0500 0.3175 0.0000 (  5376 PWs)   bands (ev):

   -51.4239 -51.4100 -27.6966 -27.6894 -27.6056 -27.5978 -27.4961 -27.4871
    -9.4457  -9.3906  -8.7621  -8.6954  -1.4449  -1.2573  -0.3922  -0.3249
    -0.1543   0.0030   0.8731   0.9331   1.7538   1.8002   1.9857   2.3076
     3.0069   3.0791   5.8286   6.0452   6.1821   6.3494   6.6604   6.8899
     7.6667   7.7274  10.1055  10.5403  10.9976  11.5883  11.7701  12.1654
    12.2721  12.6572  13.1019  13.2914  14.2824  14.8520  14.9224  15.2105
    15.2774  15.6461  15.8643  16.0680  16.2819  16.7188  16.9401  17.3852
    17.5886  17.7250  18.1522  18.8703

     occupation numbers 
     1.0000   1.0000   1.0000   1.0000   1.0000   1.0000   1.0000   1.0000
     1.0000   1.0000   1.0000   1.0000   1.0000   1.0000   1.0000   1.0000
     1.0000   1.0000   1.0000   1.0000   1.0000   1.0000   1.0000   1.0000
     0.9732   0.8562  -0.0000  -0.0000  -0.0000  -0.0000  -0.0000  -0.0000
    -0.0000  -0.0000  -0.0000  -0.0000  -0.0000  -0.0000  -0.0000  -0.0000
    -0.0000  -0.0000  -0.0000  -0.0000  -0.0000  -0.0000  -0.0000  -0.0000
    -0.0000  -0.0000  -0.0000  -0.0000  -0.0000  -0.0000  -0.0000  -0.0000
    -0.0000  -0.0000  -0.0000  -0.0000

          k = 0.0500 0.3753 0.0000 (  5371 PWs)   bands (ev):

   -51.4172 -51.4033 -27.7605 -27.7538 -27.5912 -27.5832 -27.5119 -27.5030
    -9.1887  -9.1388  -8.6781  -8.6219  -1.5754  -1.4614  -0.5514  -0.4168
    -0.3356  -0.2614   0.6996   0.7582   1.8234   1.9086   1.9476   2.1540
     2.8790   2.9542   5.9606   6.1031   6.2804   6.4646   6.9153   7.1508
     7.8557   7.9161  10.4316  10.7640  10.9587  11.1101  11.4314  11.9434
    12.0255  12.8279  13.1402  13.8415  14.1637  14.6351  14.9745  15.1956
    15.2514  15.5050  15.9184  16.4043  16.6107  17.0384  17.3292  17.6312
    17.9344  18.0845  18.2215  18.3116

     occupation numbers 
     1.0000   1.0000   1.0000   1.0000   1.0000   1.0000   1.0000   1.0000
     1.0000   1.0000   1.0000   1.0000   1.0000   1.0000   1.0000   1.0000
     1.0000   1.0000   1.0000   1.0000   1.0000   1.0000   1.0000   1.0000
     1.0354   1.0169  -0.0000  -0.0000  -0.0000  -0.0000  -0.0000  -0.0000
    -0.0000  -0.0000  -0.0000  -0.0000  -0.0000  -0.0000  -0.0000  -0.0000
    -0.0000  -0.0000  -0.0000  -0.0000  -0.0000  -0.0000  -0.0000  -0.0000
    -0.0000  -0.0000  -0.0000  -0.0000  -0.0000  -0.0000  -0.0000  -0.0000
    -0.0000  -0.0000  -0.0000  -0.0000

          k = 0.0500 0.4330 0.0000 (  5385 PWs)   bands (ev):

   -51.4115 -51.3976 -27.8143 -27.8080 -27.5789 -27.5707 -27.5253 -27.5165
    -8.9553  -8.9122  -8.6025  -8.5568  -1.7686  -1.6952  -0.8159  -0.6881
    -0.3483  -0.2898   0.5751   0.6278   1.6972   2.0111   2.0206   2.0735
     2.8959   2.9845   6.1327   6.2126   6.4321   6.6021   7.1363   7.3709
     7.9603   8.0281  10.3612  10.5005  10.9357  11.1098  11.1816  11.7727
    12.0191  12.9062  13.2231  13.8583  13.9546  14.1670  14.7387  14.8474
    15.3037  15.6119  16.4450  16.6882  16.8622  17.2238  17.4551  17.7360
    18.0758  18.5017  18.7015  18.8343

     occupation numbers 
     1.0000   1.0000   1.0000   1.0000   1.0000   1.0000   1.0000   1.0000
     1.0000   1.0000   1.0000   1.0000   1.0000   1.0000   1.0000   1.0000
     1.0000   1.0000   1.0000   1.0000   1.0000   1.0000   1.0000   1.0000
     1.0345   0.9956  -0.0000  -0.0000  -0.0000  -0.0000  -0.0000  -0.0000
    -0.0000  -0.0000  -0.0000  -0.0000  -0.0000  -0.0000  -0.0000  -0.0000
    -0.0000  -0.0000  -0.0000  -0.0000  -0.0000  -0.0000  -0.0000  -0.0000
    -0.0000  -0.0000  -0.0000  -0.0000  -0.0000  -0.0000  -0.0000  -0.0000
    -0.0000  -0.0000  -0.0000  -0.0000

          k = 0.0500 0.4907 0.0000 (  5380 PWs)   bands (ev):

   -51.4074 -51.3935 -27.8531 -27.8471 -27.5699 -27.5617 -27.5350 -27.5263
    -8.7750  -8.7393  -8.5446  -8.5078  -1.9321  -1.8812  -1.0197  -0.9005
    -0.3732  -0.3367   0.4947   0.5413   1.6095   1.9368   2.0966   2.1475
     2.9995   3.1005   6.2852   6.3256   6.6187   6.7447   7.2823   7.5327
     7.9849   8.0809   9.7533  10.1877  11.0714  11.1502  11.3367  11.7441
    12.1589  12.8906  13.3700  13.4969  13.7003  13.9004  14.4083  14.5120
    15.3947  15.4186  16.2224  16.9073  17.2337  17.5743  17.8665  17.9668
    18.2668  18.9321  19.0640  19.3739

     occupation numbers 
     1.0000   1.0000   1.0000   1.0000   1.0000   1.0000   1.0000   1.0000
     1.0000   1.0000   1.0000   1.0000   1.0000   1.0000   1.0000   1.0000
     1.0000   1.0000   1.0000   1.0000   1.0000   1.0000   1.0000   1.0000
     0.9813   0.8081  -0.0000  -0.0000  -0.0000  -0.0000  -0.0000  -0.0000
    -0.0000  -0.0000  -0.0000  -0.0000  -0.0000  -0.0000  -0.0000  -0.0000
    -0.0000  -0.0000  -0.0000  -0.0000  -0.0000  -0.0000  -0.0000  -0.0000
    -0.0000  -0.0000  -0.0000  -0.0000  -0.0000  -0.0000  -0.0000  -0.0000
    -0.0000  -0.0000  -0.0000  -0.0000

          k = 0.0500 0.5485 0.0000 (  5374 PWs)   bands (ev):

   -51.4053 -51.3913 -27.8734 -27.8676 -27.5652 -27.5569 -27.5401 -27.5314
    -8.6758  -8.6457  -8.5128  -8.4815  -2.0227  -1.9833  -1.1279  -1.0122
    -0.4021  -0.3766   0.4552   0.4983   1.5657   1.8946   2.1394   2.1909
     3.0913   3.1962   6.3674   6.3893   6.7896   6.8387   7.3414   7.6264
     7.9703   8.0984   9.3718   9.9148  11.1686  11.2188  11.5200  11.7280
    12.3961  12.7067  13.1304  13.4756  13.7153  13.8050  14.2067  14.3366
    15.0389  15.2476  16.3357  16.8569  17.5555  17.6843  17.7905  18.4178
    18.6724  19.0307  19.4874  19.6518

     occupation numbers 
     1.0000   1.0000   1.0000   1.0000   1.0000   1.0000   1.0000   1.0000
     1.0000   1.0000   1.0000   1.0000   1.0000   1.0000   1.0000   1.0000
     1.0000   1.0000   1.0000   1.0000   1.0000   1.0000   1.0000   1.0000
     0.8295   0.5379  -0.0000  -0.0000  -0.0000  -0.0000  -0.0000  -0.0000
    -0.0000  -0.0000  -0.0000  -0.0000  -0.0000  -0.0000  -0.0000  -0.0000
    -0.0000  -0.0000  -0.0000  -0.0000  -0.0000  -0.0000  -0.0000  -0.0000
    -0.0000  -0.0000  -0.0000  -0.0000  -0.0000  -0.0000  -0.0000  -0.0000
    -0.0000  -0.0000  -0.0000  -0.0000

          k = 0.1000 0.1732 0.0000 (  5351 PWs)   bands (ev):

   -51.4384 -51.4246 -27.6370 -27.6296 -27.5526 -27.5443 -27.4631 -27.4539
    -9.9593  -9.8974  -8.9314  -8.8453  -1.6765  -1.3806   0.1262   0.1647
     0.5995   0.8908   1.3154   1.3235   1.3383   1.4107   2.3462   2.6502
     3.5515   3.6958   5.8446   6.0796   6.1835   6.2329   6.2543   6.3978
     7.1054   7.1596   9.3814   9.9380  10.4127  10.7162  11.9333  12.0389
    12.7504  13.0909  13.1364  13.1390  14.0548  14.1562  14.4912  14.8294
    14.9117  15.4435  15.7313  15.8894  16.0467  17.1216  17.5096  17.5393
    17.6675  18.2587  18.4640  19.3037

     occupation numbers 
     1.0000   1.0000   1.0000   1.0000   1.0000   1.0000   1.0000   1.0000
     1.0000   1.0000   1.0000   1.0000   1.0000   1.0000   1.0000   1.0000
     1.0000   1.0000   1.0000   1.0000   1.0000   1.0000   1.0000   1.0067
    -0.0353  -0.0148  -0.0000  -0.0000  -0.0000  -0.0000  -0.0000  -0.0000
    -0.0000  -0.0000  -0.0000  -0.0000  -0.0000  -0.0000  -0.0000  -0.0000
    -0.0000  -0.0000  -0.0000  -0.0000  -0.0000  -0.0000  -0.0000  -0.0000
    -0.0000  -0.0000  -0.0000  -0.0000  -0.0000  -0.0000  -0.0000  -0.0000
    -0.0000  -0.0000  -0.0000  -0.0000

          k = 0.1000 0.2309 0.0000 (  5359 PWs)   bands (ev):

   -51.4324 -51.4186 -27.6241 -27.6165 -27.6091 -27.6012 -27.4802 -27.4711
    -9.7543  -9.6946  -8.8633  -8.7848  -1.4998  -1.2221  -0.1557  -0.1255
     0.3375   0.5621   0.9708   1.0227   1.4819   1.5299   2.3277   2.6123
     3.3367   3.4094   5.7278   5.9777   6.1739   6.2770   6.3045   6.4869
     7.4221   7.4840   9.6837  10.2349  10.9629  11.4205  12.0502  12.3025
    12.5062  12.8323  13.0417  13.2311  14.1214  14.3194  14.5914  14.8251
    14.9241  15.4918  15.7274  16.0290  16.1037  16.5846  16.8934  17.5331
    17.6237  18.0846  18.3494  19.4137

     occupation numbers 
     1.0000   1.0000   1.0000   1.0000   1.0000   1.0000   1.0000   1.0000
     1.0000   1.0000   1.0000   1.0000   1.0000   1.0000   1.0000   1.0000
     1.0000   1.0000   1.0000   1.0000   1.0000   1.0000   1.0000   1.0041
     0.1460   0.0273  -0.0000  -0.0000  -0.0000  -0.0000  -0.0000  -0.0000
    -0.0000  -0.0000  -0.0000  -0.0000  -0.0000  -0.0000  -0.0000  -0.0000
    -0.0000  -0.0000  -0.0000  -0.0000  -0.0000  -0.0000  -0.0000  -0.0000
    -0.0000  -0.0000  -0.0000  -0.0000  -0.0000  -0.0000  -0.0000  -0.0000
    -0.0000  -0.0000  -0.0000  -0.0000

          k = 0.1000 0.2887 0.0000 (  5371 PWs)   bands (ev):

   -51.4257 -51.4119 -27.6709 -27.6635 -27.6097 -27.6019 -27.4993 -27.4903
    -9.5162  -9.4598  -8.7842  -8.7146  -1.3968  -1.1755  -0.3449  -0.2996
     0.0169   0.1691   0.7057   0.8027   1.6010   1.6444   2.2233   2.4922
     3.1088   3.1537   5.6972   5.9460   6.2288   6.3737   6.4690   6.6664
     7.7051   7.7657  10.0357  10.5289  11.2177  11.8162  12.0128  12.3548
    12.5296  12.6669  12.9595  13.1297  14.2956  14.6731  14.7410  14.7884
    15.0651  15.3701  15.4508  16.0217  16.1541  16.6265  16.7435  17.5980
    17.7856  17.9913  18.3211  19.4361

     occupation numbers 
     1.0000   1.0000   1.0000   1.0000   1.0000   1.0000   1.0000   1.0000
     1.0000   1.0000   1.0000   1.0000   1.0000   1.0000   1.0000   1.0000
     1.0000   1.0000   1.0000   1.0000   1.0000   1.0000   1.0000   1.0006
     0.7880   0.6665  -0.0000  -0.0000  -0.0000  -0.0000  -0.0000  -0.0000
    -0.0000  -0.0000  -0.0000  -0.0000  -0.0000  -0.0000  -0.0000  -0.0000
    -0.0000  -0.0000  -0.0000  -0.0000  -0.0000  -0.0000  -0.0000  -0.0000
    -0.0000  -0.0000  -0.0000  -0.0000  -0.0000  -0.0000  -0.0000  -0.0000
    -0.0000  -0.0000  -0.0000  -0.0000

          k = 0.1000 0.3464 0.0000 (  5374 PWs)   bands (ev):

   -51.4191 -51.4052 -27.7319 -27.7250 -27.5953 -27.5873 -27.5184 -27.5095
    -9.2644  -9.2126  -8.7006  -8.6411  -1.4528  -1.3124  -0.4375  -0.3379
    -0.2812  -0.2029   0.5523   0.6634   1.6632   1.7049   2.0646   2.3268
     2.9639   3.0122   5.7694   6.0104   6.3465   6.4790   6.7031   6.9082
     7.9148   7.9643  10.4084  10.8015  11.2222  11.4195  11.8016  12.1338
    12.3116  12.8854  13.1433  13.5879  14.2300  14.5852  14.7687  14.9724
    15.0496  15.2724  15.5577  15.9012  16.1881  17.0457  17.1568  17.6652
    17.9878  18.2661  18.4338  18.5415

     occupation numbers 
     1.0000   1.0000   1.0000   1.0000   1.0000   1.0000   1.0000   1.0000
     1.0000   1.0000   1.0000   1.0000   1.0000   1.0000   1.0000   1.0000
     1.0000   1.0000   1.0000   1.0000   1.0000   1.0000   1.0000   1.0000
     1.0112   0.9670  -0.0000  -0.0000  -0.0000  -0.0000  -0.0000  -0.0000
    -0.0000  -0.0000  -0.0000  -0.0000  -0.0000  -0.0000  -0.0000  -0.0000
    -0.0000  -0.0000  -0.0000  -0.0000  -0.0000  -0.0000  -0.0000  -0.0000
    -0.0000  -0.0000  -0.0000  -0.0000  -0.0000  -0.0000  -0.0000  -0.0000
    -0.0000  -0.0000  -0.0000  -0.0000

          k = 0.1000 0.4041 0.0000 (  5386 PWs)   bands (ev):

   -51.4131 -51.3992 -27.7864 -27.7799 -27.5822 -27.5742 -27.5356 -27.5268
    -9.0226  -8.9770  -8.6207  -8.5714  -1.6131  -1.5243  -0.7205  -0.6155
    -0.3147  -0.2459   0.4762   0.5776   1.6839   1.7305   1.8925   2.1565
     2.9557   3.0171   5.9326   6.1536   6.4900   6.5809   6.9610   7.1627
     8.0121   8.0652  10.6597  10.8201  11.0148  11.2511  11.4461  12.0106
    12.1791  13.0151  13.2280  13.8182  14.0988  14.1205  14.4680  15.0857
    15.3027  15.3989  15.8490  16.3433  16.4330  17.1414  17.5179  17.5463
    17.9622  18.2889  18.5110  18.8286

     occupation numbers 
     1.0000   1.0000   1.0000   1.0000   1.0000   1.0000   1.0000   1.0000
     1.0000   1.0000   1.0000   1.0000   1.0000   1.0000   1.0000   1.0000
     1.0000   1.0000   1.0000   1.0000   1.0000   1.0000   1.0000   1.0000
     1.0161   0.9609  -0.0000  -0.0000  -0.0000  -0.0000  -0.0000  -0.0000
    -0.0000  -0.0000  -0.0000  -0.0000  -0.0000  -0.0000  -0.0000  -0.0000
    -0.0000  -0.0000  -0.0000  -0.0000  -0.0000  -0.0000  -0.0000  -0.0000
    -0.0000  -0.0000  -0.0000  -0.0000  -0.0000  -0.0000  -0.0000  -0.0000
    -0.0000  -0.0000  -0.0000  -0.0000

          k = 0.1000 0.4619 0.0000 (  5387 PWs)   bands (ev):

   -51.4083 -51.3944 -27.8292 -27.8231 -27.5719 -27.5637 -27.5492 -27.5405
    -8.8185  -8.7801  -8.5534  -8.5138  -1.7753  -1.7161  -0.9873  -0.8904
    -0.3214  -0.2774   0.4478   0.5291   1.6941   1.7516   1.7638   2.0121
     3.0504   3.1275   6.1321   6.2921   6.6377   6.7042   7.2085   7.3946
     7.9774   8.0772  10.1196  10.5554  11.2133  11.3612  11.4873  11.9166
    12.2544  13.0607  13.2868  13.4494  13.8382  13.9834  14.1532  14.8104
    15.5274  15.5567  16.2001  16.6039  16.7753  17.0823  17.6946  17.7704
    18.0969  18.1996  18.6837  19.2238

     occupation numbers 
     1.0000   1.0000   1.0000   1.0000   1.0000   1.0000   1.0000   1.0000
     1.0000   1.0000   1.0000   1.0000   1.0000   1.0000   1.0000   1.0000
     1.0000   1.0000   1.0000   1.0000   1.0000   1.0000   1.0000   1.0000
     0.9112   0.7398  -0.0000  -0.0000  -0.0000  -0.0000  -0.0000  -0.0000
    -0.0000  -0.0000  -0.0000  -0.0000  -0.0000  -0.0000  -0.0000  -0.0000
    -0.0000  -0.0000  -0.0000  -0.0000  -0.0000  -0.0000  -0.0000  -0.0000
    -0.0000  -0.0000  -0.0000  -0.0000  -0.0000  -0.0000  -0.0000  -0.0000
    -0.0000  -0.0000  -0.0000  -0.0000

          k = 0.1000 0.5196 0.0000 (  5390 PWs)   bands (ev):

   -51.4053 -51.3913 -27.8566 -27.8506 -27.5652 -27.5579 -27.5569 -27.5493
    -8.6804  -8.6489  -8.5078  -8.4756  -1.8865  -1.8461  -1.1599  -1.0662
    -0.3564  -0.3315   0.4451   0.5053   1.6231   1.7435   1.7994   1.9149
     3.1692   3.2592   6.2733   6.3439   6.7862   6.8649   7.4212   7.5846
     7.8553   8.0144   9.6209  10.1990  11.4075  11.5679  11.6931  11.9944
    12.3571  12.9199  12.9474  13.4850  13.6606  13.8132  14.0233  14.5973
    15.2415  15.5712  16.1921  16.6593  17.2552  17.3805  17.7008  17.9470
    18.3358  18.5745  18.8718  19.3151

     occupation numbers 
     1.0000   1.0000   1.0000   1.0000   1.0000   1.0000   1.0000   1.0000
     1.0000   1.0000   1.0000   1.0000   1.0000   1.0000   1.0000   1.0000
     1.0000   1.0000   1.0000   1.0000   1.0000   1.0000   1.0000   1.0000
     0.6207   0.3452  -0.0000  -0.0000  -0.0000  -0.0000  -0.0000  -0.0000
    -0.0000  -0.0000  -0.0000  -0.0000  -0.0000  -0.0000  -0.0000  -0.0000
    -0.0000  -0.0000  -0.0000  -0.0000  -0.0000  -0.0000  -0.0000  -0.0000
    -0.0000  -0.0000  -0.0000  -0.0000  -0.0000  -0.0000  -0.0000  -0.0000
    -0.0000  -0.0000  -0.0000  -0.0000

          k = 0.1000 0.5774 0.0000 (  5370 PWs)   bands (ev):

   -51.4042 -51.3902 -27.8659 -27.8601 -27.5629 -27.5609 -27.5546 -27.5523
    -8.6314  -8.6030  -8.4915  -8.4621  -1.9251  -1.8924  -1.2193  -1.1265
    -0.3761  -0.3561   0.4477   0.4980   1.5866   1.7534   1.8156   1.8792
     3.2232   3.3180   6.3146   6.3486   6.8640   6.9476   7.5361   7.6999
     7.7369   7.9576   9.4255  10.0448  11.5210  11.6391  11.8620  12.0010
    12.5497  12.6633  12.7463  13.4235  13.6573  13.7846  14.2300  14.3130
    15.1160  15.4014  16.3263  16.7364  17.2178  17.5294  17.7209  18.0339
    18.5694  18.5871  19.2337  19.3220

     occupation numbers 
     1.0000   1.0000   1.0000   1.0000   1.0000   1.0000   1.0000   1.0000
     1.0000   1.0000   1.0000   1.0000   1.0000   1.0000   1.0000   1.0000
     1.0000   1.0000   1.0000   1.0000   1.0000   1.0000   1.0000   1.0000
     0.4540   0.1879  -0.0000  -0.0000  -0.0000  -0.0000  -0.0000  -0.0000
    -0.0000  -0.0000  -0.0000  -0.0000  -0.0000  -0.0000  -0.0000  -0.0000
    -0.0000  -0.0000  -0.0000  -0.0000  -0.0000  -0.0000  -0.0000  -0.0000
    -0.0000  -0.0000  -0.0000  -0.0000  -0.0000  -0.0000  -0.0000  -0.0000
    -0.0000  -0.0000  -0.0000  -0.0000

          k = 0.1500 0.2598 0.0000 (  5376 PWs)   bands (ev):

   -51.4264 -51.4126 -27.6608 -27.6533 -27.6111 -27.6034 -27.5017 -27.4928
    -9.5403  -9.4835  -8.7916  -8.7211  -1.3794  -1.1446  -0.3258  -0.2857
     0.1253   0.2545   0.6035   0.7026   1.5384   1.5806   2.3285   2.5756
     3.1546   3.1749   5.6497   5.9048   6.2339   6.3630   6.3967   6.5886
     7.7265   7.7913  10.0119  10.5295  11.3550  11.9456  12.0944  12.4298
    12.5079  12.8156  12.9769  13.0354  14.2247  14.5081  14.6785  14.7105
    14.7828  15.2946  15.3078  16.0257  16.1617  16.5863  16.6539  17.7341
    17.8761  18.1532  18.2909  19.5996

     occupation numbers 
     1.0000   1.0000   1.0000   1.0000   1.0000   1.0000   1.0000   1.0000
     1.0000   1.0000   1.0000   1.0000   1.0000   1.0000   1.0000   1.0000
     1.0000   1.0000   1.0000   1.0000   1.0000   1.0000   1.0000   1.0024
     0.6639   0.6035  -0.0000  -0.0000  -0.0000  -0.0000  -0.0000  -0.0000
    -0.0000  -0.0000  -0.0000  -0.0000  -0.0000  -0.0000  -0.0000  -0.0000
    -0.0000  -0.0000  -0.0000  -0.0000  -0.0000  -0.0000  -0.0000  -0.0000
    -0.0000  -0.0000  -0.0000  -0.0000  -0.0000  -0.0000  -0.0000  -0.0000
    -0.0000  -0.0000  -0.0000  -0.0000

          k = 0.1500 0.3175 0.0000 (  5381 PWs)   bands (ev):

   -51.4201 -51.4062 -27.7133 -27.7063 -27.5974 -27.5895 -27.5254 -27.5167
    -9.3037  -9.2510  -8.7119  -8.6506  -1.3729  -1.2112  -0.3862  -0.2985
    -0.1943  -0.1357   0.4041   0.5565   1.5046   1.5436   2.2367   2.4554
     3.0193   3.0401   5.6620   5.9455   6.3718   6.4848   6.5605   6.7452
     7.9673   8.0246  10.3836  10.8296  11.4271  11.7354  12.0819  12.2801
    12.6752  12.9462  13.0870  13.3468  14.1963  14.4615  14.6200  14.7114
    14.7450  15.0086  15.2376  15.8081  16.0477  17.0366  17.0598  17.6199
    18.0547  18.2643  18.5677  19.2328

     occupation numbers 
     1.0000   1.0000   1.0000   1.0000   1.0000   1.0000   1.0000   1.0000
     1.0000   1.0000   1.0000   1.0000   1.0000   1.0000   1.0000   1.0000
     1.0000   1.0000   1.0000   1.0000   1.0000   1.0000   1.0000   1.0003
     0.9582   0.9282  -0.0000  -0.0000  -0.0000  -0.0000  -0.0000  -0.0000
    -0.0000  -0.0000  -0.0000  -0.0000  -0.0000  -0.0000  -0.0000  -0.0000
    -0.0000  -0.0000  -0.0000  -0.0000  -0.0000  -0.0000  -0.0000  -0.0000
    -0.0000  -0.0000  -0.0000  -0.0000  -0.0000  -0.0000  -0.0000  -0.0000
    -0.0000  -0.0000  -0.0000  -0.0000

          k = 0.1500 0.3753 0.0000 (  5388 PWs)   bands (ev):

   -51.4141 -51.4002 -27.7622 -27.7555 -27.5844 -27.5764 -27.5486 -27.5400
    -9.0656  -9.0184  -8.6313  -8.5798  -1.4754  -1.3689  -0.6282  -0.5629
    -0.2854  -0.1995   0.3505   0.5027   1.4035   1.4420   2.0756   2.2822
     2.9946   3.0339   5.7878   6.0947   6.5321   6.5876   6.7735   6.9556
     8.1037   8.1601  10.7333  11.0829  11.2156  11.4118  11.8045  12.2412
    12.4679  13.1675  13.2491  13.6664  13.9924  14.1616  14.4615  14.8701
    15.0287  15.2396  15.4567  15.7620  16.1495  17.2760  17.3330  17.4518
    18.0123  18.2485  18.6450  18.9990

     occupation numbers 
     1.0000   1.0000   1.0000   1.0000   1.0000   1.0000   1.0000   1.0000
     1.0000   1.0000   1.0000   1.0000   1.0000   1.0000   1.0000   1.0000
     1.0000   1.0000   1.0000   1.0000   1.0000   1.0000   1.0000   1.0000
     0.9863   0.9377  -0.0000  -0.0000  -0.0000  -0.0000  -0.0000  -0.0000
    -0.0000  -0.0000  -0.0000  -0.0000  -0.0000  -0.0000  -0.0000  -0.0000
    -0.0000  -0.0000  -0.0000  -0.0000  -0.0000  -0.0000  -0.0000  -0.0000
    -0.0000  -0.0000  -0.0000  -0.0000  -0.0000  -0.0000  -0.0000  -0.0000
    -0.0000  -0.0000  -0.0000  -0.0000

          k = 0.1500 0.4330 0.0000 (  5378 PWs)   bands (ev):

   -51.4090 -51.3950 -27.8031 -27.7968 -27.5733 -27.5686 -27.5651 -27.5601
    -8.8507  -8.8103  -8.5582  -8.5164  -1.6016  -1.5285  -0.9570  -0.8920
    -0.2573  -0.1926   0.3657   0.4975   1.3129   1.3602   1.8871   2.0980
     3.0799   3.1314   5.9819   6.2518   6.6745   6.6914   7.0140   7.1831
     8.1037   8.2067  10.5115  10.9196  11.3066  11.5163  11.6412  12.2170
    12.4371  13.0330  13.3910  13.5128  13.7380  14.1820  14.2708  15.0771
    15.3341  15.3867  15.7742  16.2526  16.3871  16.8801  17.2901  17.6463
    17.7896  18.1940  18.3877  18.9393

     occupation numbers 
     1.0000   1.0000   1.0000   1.0000   1.0000   1.0000   1.0000   1.0000
     1.0000   1.0000   1.0000   1.0000   1.0000   1.0000   1.0000   1.0000
     1.0000   1.0000   1.0000   1.0000   1.0000   1.0000   1.0000   1.0000
     0.8546   0.7293  -0.0000  -0.0000  -0.0000  -0.0000  -0.0000  -0.0000
    -0.0000  -0.0000  -0.0000  -0.0000  -0.0000  -0.0000  -0.0000  -0.0000
    -0.0000  -0.0000  -0.0000  -0.0000  -0.0000  -0.0000  -0.0000  -0.0000
    -0.0000  -0.0000  -0.0000  -0.0000  -0.0000  -0.0000  -0.0000  -0.0000
    -0.0000  -0.0000  -0.0000  -0.0000

          k = 0.1500 0.4907 0.0000 (  5375 PWs)   bands (ev):

   -51.4053 -51.3913 -27.8325 -27.8264 -27.5832 -27.5748 -27.5652 -27.5569
    -8.6861  -8.6529  -8.5017  -8.4683  -1.6976  -1.6496  -1.1961  -1.1300
    -0.2870  -0.2500   0.4136   0.5160   1.2709   1.3365   1.7170   1.9417
     3.2194   3.2850   6.1360   6.2729   6.8019   6.8978   7.2508   7.3837
     7.9934   8.1763   9.9749  10.5726  11.5813  11.7191  11.9301  12.1699
    12.5645  12.7742  13.1906  13.4693  13.7206  13.9696  14.1901  14.8319
    15.3832  15.7500  15.9899  16.3806  16.7679  16.8313  17.3980  17.5302
    17.8826  18.2905  18.4384  18.9819

     occupation numbers 
     1.0000   1.0000   1.0000   1.0000   1.0000   1.0000   1.0000   1.0000
     1.0000   1.0000   1.0000   1.0000   1.0000   1.0000   1.0000   1.0000
     1.0000   1.0000   1.0000   1.0000   1.0000   1.0000   1.0000   1.0000
     0.4658   0.2721  -0.0000  -0.0000  -0.0000  -0.0000  -0.0000  -0.0000
    -0.0000  -0.0000  -0.0000  -0.0000  -0.0000  -0.0000  -0.0000  -0.0000
    -0.0000  -0.0000  -0.0000  -0.0000  -0.0000  -0.0000  -0.0000  -0.0000
    -0.0000  -0.0000  -0.0000  -0.0000  -0.0000  -0.0000  -0.0000  -0.0000
    -0.0000  -0.0000  -0.0000  -0.0000

          k = 0.1500 0.5485 0.0000 (  5384 PWs)   bands (ev):

   -51.4033 -51.3893 -27.8479 -27.8419 -27.5909 -27.5826 -27.5610 -27.5526
    -8.5961  -8.5685  -8.4703  -8.4421  -1.7445  -1.7162  -1.3209  -1.2541
    -0.3307  -0.3042   0.4581   0.5327   1.2614   1.3385   1.6126   1.8501
     3.3291   3.4061   6.1809   6.2265   6.9355   7.0736   7.4371   7.5118
     7.8512   8.1181   9.6355  10.2954  11.8538  12.0066  12.1595  12.2983
    12.4440  12.6593  12.8869  13.2446  13.7785  14.0408  14.1658  14.6159
    15.2454  15.6045  16.2309  16.3844  16.8191  17.1945  17.3772  17.6142
    17.9877  18.3681  18.7452  19.0653

     occupation numbers 
     1.0000   1.0000   1.0000   1.0000   1.0000   1.0000   1.0000   1.0000
     1.0000   1.0000   1.0000   1.0000   1.0000   1.0000   1.0000   1.0000
     1.0000   1.0000   1.0000   1.0000   1.0000   1.0000   1.0000   1.0000
     0.1625   0.0312  -0.0000  -0.0000  -0.0000  -0.0000  -0.0000  -0.0000
    -0.0000  -0.0000  -0.0000  -0.0000  -0.0000  -0.0000  -0.0000  -0.0000
    -0.0000  -0.0000  -0.0000  -0.0000  -0.0000  -0.0000  -0.0000  -0.0000
    -0.0000  -0.0000  -0.0000  -0.0000  -0.0000  -0.0000  -0.0000  -0.0000
    -0.0000  -0.0000  -0.0000  -0.0000

          k = 0.2000 0.3464 0.0000 (  5376 PWs)   bands (ev):

   -51.4144 -51.4005 -27.7521 -27.7454 -27.5852 -27.5771 -27.5549 -27.5463
    -9.0804  -9.0326  -8.6348  -8.5825  -1.4191  -1.3036  -0.5789  -0.5489
    -0.2745  -0.1764   0.2939   0.4674   1.2889   1.3254   2.1535   2.3330
     3.0071   3.0377   5.7355   6.0701   6.5448   6.5925   6.6993   6.8706
     8.1510   8.2004  10.7427  11.1197  11.3614  11.5102  11.9711  12.3313
    12.6704  13.2076  13.2716  13.5982  14.0245  14.1047  14.4697  14.5498
    14.8163  15.2475  15.3798  15.6960  15.9142  17.2741  17.3247  17.3445
    18.0721  18.2459  18.9506  19.1506

     occupation numbers 
     1.0000   1.0000   1.0000   1.0000   1.0000   1.0000   1.0000   1.0000
     1.0000   1.0000   1.0000   1.0000   1.0000   1.0000   1.0000   1.0000
     1.0000   1.0000   1.0000   1.0000   1.0000   1.0000   1.0000   1.0000
     0.9730   0.9320  -0.0000  -0.0000  -0.0000  -0.0000  -0.0000  -0.0000
    -0.0000  -0.0000  -0.0000  -0.0000  -0.0000  -0.0000  -0.0000  -0.0000
    -0.0000  -0.0000  -0.0000  -0.0000  -0.0000  -0.0000  -0.0000  -0.0000
    -0.0000  -0.0000  -0.0000  -0.0000  -0.0000  -0.0000  -0.0000  -0.0000
    -0.0000  -0.0000  -0.0000  -0.0000

          k = 0.2000 0.4041 0.0000 (  5371 PWs)   bands (ev):

   -51.4093 -51.3954 -27.7846 -27.7781 -27.5837 -27.5753 -27.5741 -27.5659
    -8.8679  -8.8263  -8.5602  -8.5172  -1.4835  -1.3955  -0.9327  -0.8982
    -0.2039  -0.1089   0.3074   0.4712   1.0440   1.0762   1.9945   2.1547
     3.0908   3.1247   5.8936   6.2203   6.6924   6.7008   6.8753   7.0333
     8.2381   8.2974  10.8201  11.1138  11.3610  11.4643  11.8161  12.4341
    12.6527  12.9805  13.2964  13.5711  13.9952  14.2961  14.5456  14.9698
    15.1536  15.3405  15.3861  15.7194  16.0202  16.9594  17.2009  17.4450
    17.8052  18.0655  18.4217  18.9471

     occupation numbers 
     1.0000   1.0000   1.0000   1.0000   1.0000   1.0000   1.0000   1.0000
     1.0000   1.0000   1.0000   1.0000   1.0000   1.0000   1.0000   1.0000
     1.0000   1.0000   1.0000   1.0000   1.0000   1.0000   1.0000   1.0000
     0.8305   0.7471  -0.0000  -0.0000  -0.0000  -0.0000  -0.0000  -0.0000
    -0.0000  -0.0000  -0.0000  -0.0000  -0.0000  -0.0000  -0.0000  -0.0000
    -0.0000  -0.0000  -0.0000  -0.0000  -0.0000  -0.0000  -0.0000  -0.0000
    -0.0000  -0.0000  -0.0000  -0.0000  -0.0000  -0.0000  -0.0000  -0.0000
    -0.0000  -0.0000  -0.0000  -0.0000

          k = 0.2000 0.4619 0.0000 (  5382 PWs)   bands (ev):

   -51.4053 -51.3913 -27.8087 -27.8025 -27.6080 -27.5998 -27.5653 -27.5570
    -8.6906  -8.6562  -8.4966  -8.4624  -1.5236  -1.4577  -1.2221  -1.1801
    -0.1998  -0.1312   0.3806   0.5221   0.8576   0.9103   1.8048   1.9652
     3.2466   3.2843   6.0208   6.2076   6.8140   6.9161   7.0709   7.1952
     8.2298   8.3420  10.3742  10.8854  11.5002  11.6862  11.8721  12.5561
    12.6233  12.8608  13.2072  13.8045  13.9256  14.3368  14.5365  15.0477
    15.2896  15.4541  15.7413  16.0837  16.4176  16.5800  16.7812  17.3158
    17.6504  18.1034  18.1951  18.5519

     occupation numbers 
     1.0000   1.0000   1.0000   1.0000   1.0000   1.0000   1.0000   1.0000
     1.0000   1.0000   1.0000   1.0000   1.0000   1.0000   1.0000   1.0000
     1.0000   1.0000   1.0000   1.0000   1.0000   1.0000   1.0000   1.0000
     0.3824   0.2740  -0.0000  -0.0000  -0.0000  -0.0000  -0.0000  -0.0000
    -0.0000  -0.0000  -0.0000  -0.0000  -0.0000  -0.0000  -0.0000  -0.0000
    -0.0000  -0.0000  -0.0000  -0.0000  -0.0000  -0.0000  -0.0000  -0.0000
    -0.0000  -0.0000  -0.0000  -0.0000  -0.0000  -0.0000  -0.0000  -0.0000
    -0.0000  -0.0000  -0.0000  -0.0000

          k = 0.2000 0.5196 0.0000 (  5367 PWs)   bands (ev):

   -51.4027 -51.3887 -27.8235 -27.8175 -27.6242 -27.6161 -27.5596 -27.5512
    -8.5721  -8.5444  -8.4531  -8.4254  -1.5300  -1.4902  -1.4064  -1.3604
    -0.2667  -0.2137   0.4708   0.5815   0.7653   0.8494   1.6428   1.8136
     3.4099   3.4597   6.0207   6.0830   6.9767   7.1205   7.2456   7.3241
     8.1753   8.3497   9.9620  10.6010  11.5134  12.0081  12.1378  12.5133
    12.7730  12.9443  13.1215  13.7099  13.9551  14.2854  14.4703  14.9217
    15.2581  15.7553  15.8188  16.1920  16.4287  16.7523  16.8829  17.0600
    17.7517  18.0285  18.1754  18.6426

     occupation numbers 
     1.0000   1.0000   1.0000   1.0000   1.0000   1.0000   1.0000   1.0000
     1.0000   1.0000   1.0000   1.0000   1.0000   1.0000   1.0000   1.0000
     1.0000   1.0000   1.0000   1.0000   1.0000   1.0000   1.0000   1.0000
     0.0268  -0.0153  -0.0000  -0.0000  -0.0000  -0.0000  -0.0000  -0.0000
    -0.0000  -0.0000  -0.0000  -0.0000  -0.0000  -0.0000  -0.0000  -0.0000
    -0.0000  -0.0000  -0.0000  -0.0000  -0.0000  -0.0000  -0.0000  -0.0000
    -0.0000  -0.0000  -0.0000  -0.0000  -0.0000  -0.0000  -0.0000  -0.0000
    -0.0000  -0.0000  -0.0000  -0.0000

          k = 0.2000 0.5774 0.0000 (  5358 PWs)   bands (ev):

   -51.4018 -51.3878 -27.8285 -27.8225 -27.6299 -27.6218 -27.5576 -27.5492
    -8.5303  -8.5059  -8.4373  -8.4119  -1.5225  -1.5046  -1.4685  -1.4218
    -0.3066  -0.2582   0.5158   0.6072   0.7415   0.8374   1.5762   1.7535
     3.4833   3.5403   5.9890   6.0157   7.0734   7.1756   7.3359   7.3761
     8.1444   8.3464   9.7999  10.4642  11.5497  12.2023  12.2593  12.4665
    12.8655  12.9674  13.2018  13.3587  14.0846  14.2712  14.6159  14.6513
    15.4133  15.4664  16.0490  16.1260  16.4041  16.8927  16.9703  17.0267
    17.8964  17.9839  18.1523  18.8007

     occupation numbers 
     1.0000   1.0000   1.0000   1.0000   1.0000   1.0000   1.0000   1.0000
     1.0000   1.0000   1.0000   1.0000   1.0000   1.0000   1.0000   1.0000
     1.0000   1.0000   1.0000   1.0000   1.0000   1.0000   1.0000   1.0000
    -0.0262  -0.0355  -0.0000  -0.0000  -0.0000  -0.0000  -0.0000  -0.0000
    -0.0000  -0.0000  -0.0000  -0.0000  -0.0000  -0.0000  -0.0000  -0.0000
    -0.0000  -0.0000  -0.0000  -0.0000  -0.0000  -0.0000  -0.0000  -0.0000
    -0.0000  -0.0000  -0.0000  -0.0000  -0.0000  -0.0000  -0.0000  -0.0000
    -0.0000  -0.0000  -0.0000  -0.0000

          k = 0.2500 0.4330 0.0000 (  5370 PWs)   bands (ev):

   -51.4053 -51.3913 -27.7979 -27.7916 -27.6192 -27.6110 -27.5653 -27.5570
    -8.6923  -8.6574  -8.4947  -8.4602  -1.4508  -1.3737  -1.2304  -1.1990
    -0.1428  -0.0491   0.3674   0.5230   0.6810   0.6971   1.8436   1.9724
     3.2574   3.2786   5.9766   6.1815   6.8134   6.9158   7.0092   7.1301
     8.3470   8.3939  10.6834  10.8517  11.5441  11.6006  11.7566  12.6183
    12.8525  12.9173  13.0760  13.9500  14.3314  14.4404  14.7340  15.2431
    15.2646  15.3550  15.4091  15.6382  16.1093  16.6996  16.7067  17.3210
    17.4458  17.8579  18.0584  18.8038

     occupation numbers 
     1.0000   1.0000   1.0000   1.0000   1.0000   1.0000   1.0000   1.0000
     1.0000   1.0000   1.0000   1.0000   1.0000   1.0000   1.0000   1.0000
     1.0000   1.0000   1.0000   1.0000   1.0000   1.0000   1.0000   1.0000
     0.3504   0.2895  -0.0000  -0.0000  -0.0000  -0.0000  -0.0000  -0.0000
    -0.0000  -0.0000  -0.0000  -0.0000  -0.0000  -0.0000  -0.0000  -0.0000
    -0.0000  -0.0000  -0.0000  -0.0000  -0.0000  -0.0000  -0.0000  -0.0000
    -0.0000  -0.0000  -0.0000  -0.0000  -0.0000  -0.0000  -0.0000  -0.0000
    -0.0000  -0.0000  -0.0000  -0.0000

          k = 0.2500 0.4907 0.0000 (  5364 PWs)   bands (ev):

   -51.4023 -51.3883 -27.8032 -27.7970 -27.6494 -27.6414 -27.5589 -27.5505
    -8.5600  -8.5322  -8.4433  -8.4158  -1.4594  -1.4261  -1.3675  -1.3007
    -0.1779  -0.0836   0.3883   0.4460   0.4882   0.6182   1.6692   1.7840
     3.4619   3.4810   5.9142   5.9895   6.9459   7.0607   7.1797   7.3116
     8.4100   8.4830  10.3485  10.7181  11.2909  11.6536  12.0119  12.8365
    12.9526  13.1682  13.3136  14.1956  14.3335  14.6003  14.7846  15.0147
    15.2491  15.4473  15.8240  15.8317  16.2294  16.2888  16.6449  16.8520
    17.2940  17.7527  17.8517  18.6475

     occupation numbers 
     1.0000   1.0000   1.0000   1.0000   1.0000   1.0000   1.0000   1.0000
     1.0000   1.0000   1.0000   1.0000   1.0000   1.0000   1.0000   1.0000
     1.0000   1.0000   1.0000   1.0000   1.0000   1.0000   1.0000   1.0000
    -0.0165  -0.0253  -0.0000  -0.0000  -0.0000  -0.0000  -0.0000  -0.0000
    -0.0000  -0.0000  -0.0000  -0.0000  -0.0000  -0.0000  -0.0000  -0.0000
    -0.0000  -0.0000  -0.0000  -0.0000  -0.0000  -0.0000  -0.0000  -0.0000
    -0.0000  -0.0000  -0.0000  -0.0000  -0.0000  -0.0000  -0.0000  -0.0000
    -0.0000  -0.0000  -0.0000  -0.0000

          k = 0.2500 0.5485 0.0000 (  5358 PWs)   bands (ev):

   -51.4008 -51.3868 -27.8037 -27.7976 -27.6675 -27.6595 -27.5555 -27.5471
    -8.4889  -8.4668  -8.4144  -8.3906  -1.5773  -1.5419  -1.2774  -1.2384
    -0.2837  -0.1969   0.2725   0.3815   0.5776   0.6922   1.5417   1.6542
     3.6163   3.6471   5.7918   5.8168   7.0332   7.0830   7.3480   7.4751
     8.4319   8.5409  10.0839  10.6561  11.0819  11.7257  12.2059  12.9509
    13.2510  13.3628  13.5765  13.9342  14.3324  14.5875  14.7810  15.0889
    15.2450  15.5091  15.6224  15.8994  16.3385  16.4140  16.4994  16.8119
    17.2864  17.4453  18.1270  18.6623

     occupation numbers 
     1.0000   1.0000   1.0000   1.0000   1.0000   1.0000   1.0000   1.0000
     1.0000   1.0000   1.0000   1.0000   1.0000   1.0000   1.0000   1.0000
     1.0000   1.0000   1.0000   1.0000   1.0000   1.0000   1.0000   1.0000
    -0.0277  -0.0225  -0.0000  -0.0000  -0.0000  -0.0000  -0.0000  -0.0000
    -0.0000  -0.0000  -0.0000  -0.0000  -0.0000  -0.0000  -0.0000  -0.0000
    -0.0000  -0.0000  -0.0000  -0.0000  -0.0000  -0.0000  -0.0000  -0.0000
    -0.0000  -0.0000  -0.0000  -0.0000  -0.0000  -0.0000  -0.0000  -0.0000
    -0.0000  -0.0000  -0.0000  -0.0000

          k = 0.3000 0.5196 0.0000 (  5360 PWs)   bands (ev):

   -51.4004 -51.3864 -27.7895 -27.7834 -27.6861 -27.6782 -27.5548 -27.5463
    -8.4748  -8.4535  -8.4062  -8.3828  -1.6149  -1.5828  -1.1567  -1.0893
    -0.2628  -0.1383   0.0485   0.1404   0.6030   0.7305   1.5312   1.6062
     3.6785   3.6849   5.7075   5.7339   6.9843   7.0399   7.3844   7.5221
     8.5635   8.6046  10.3751  10.5343  11.0319  11.4311  12.1685  13.2335
    13.2912  13.5489  13.7396  14.3689  14.3981  14.7867  14.7996  15.1462
    15.2789  15.3256  15.5825  15.9314  16.0517  16.3257  16.5847  16.6435
    16.6984  17.3312  18.1191  18.5622

     occupation numbers 
     1.0000   1.0000   1.0000   1.0000   1.0000   1.0000   1.0000   1.0000
     1.0000   1.0000   1.0000   1.0000   1.0000   1.0000   1.0000   1.0000
     1.0000   1.0000   1.0000   1.0000   1.0000   1.0000   1.0000   1.0000
    -0.0174  -0.0164  -0.0000  -0.0000  -0.0000  -0.0000  -0.0000  -0.0000
    -0.0000  -0.0000  -0.0000  -0.0000  -0.0000  -0.0000  -0.0000  -0.0000
    -0.0000  -0.0000  -0.0000  -0.0000  -0.0000  -0.0000  -0.0000  -0.0000
    -0.0000  -0.0000  -0.0000  -0.0000  -0.0000  -0.0000  -0.0000  -0.0000
    -0.0000  -0.0000  -0.0000  -0.0000

          k = 0.3000 0.5774 0.0000 (  5380 PWs)   bands (ev):

   -51.3998 -51.3858 -27.7799 -27.7739 -27.7037 -27.6958 -27.5534 -27.5449
    -8.4455  -8.4274  -8.3926  -8.3699  -1.6699  -1.6377  -1.0089  -0.9512
    -0.3853  -0.3216   0.0040   0.0748   0.6656   0.7867   1.4701   1.5207
     3.7751   3.7862   5.5940   5.6176   6.9858   7.0243   7.5110   7.5855
     8.6145   8.6611  10.3002  10.7033  10.7224  11.3910  12.2278  13.4173
    13.5942  13.6501  14.1088  14.1189  14.4824  14.6550  14.8323  15.0390
    15.1566  15.5666  15.6832  15.9208  15.9537  16.2936  16.3948  16.6452
    16.6720  17.1433  18.3964  18.5904

     occupation numbers 
     1.0000   1.0000   1.0000   1.0000   1.0000   1.0000   1.0000   1.0000
     1.0000   1.0000   1.0000   1.0000   1.0000   1.0000   1.0000   1.0000
     1.0000   1.0000   1.0000   1.0000   1.0000   1.0000   1.0000   1.0000
    -0.0061  -0.0053  -0.0000  -0.0000  -0.0000  -0.0000  -0.0000  -0.0000
    -0.0000  -0.0000  -0.0000  -0.0000  -0.0000  -0.0000  -0.0000  -0.0000
    -0.0000  -0.0000  -0.0000  -0.0000  -0.0000  -0.0000  -0.0000  -0.0000
    -0.0000  -0.0000  -0.0000  -0.0000  -0.0000  -0.0000  -0.0000  -0.0000
    -0.0000  -0.0000  -0.0000  -0.0000

     the Fermi energy is     3.2084 ev

!    total energy              =    -907.91149688 Ry

     total all-electron energy =    -18448.320519 Ry
     estimated scf accuracy    <          4.2E-10 Ry
     smearing contrib. (-TS)   =      -0.00192751 Ry
     internal energy E=F+TS    =    -907.90956937 Ry

     The total energy is F=E-TS. E is the sum of the following terms:
     one-electron contribution =   -1048.08175370 Ry
     hartree contribution      =     537.56948781 Ry
     xc contribution           =     -65.32318695 Ry
     ewald contribution        =     256.18108273 Ry
     one-center paw contrib.   =    -588.25519925 Ry
      -> PAW hartree energy AE =     100.87594366 Ry
      -> PAW hartree energy PS =    -100.36181771 Ry
      -> PAW xc energy AE      =    -324.79852032 Ry
      -> PAW xc energy PS      =      30.15760987 Ry
      -> total E_H with PAW    =     538.08361376 Ry
      -> total E_XC with PAW   =    -359.96409741 Ry

     convergence has been achieved in  14 iterations

     Writing output data file ./tmp/NbS2_bi.save/

     init_run     :     12.09s CPU     12.28s WALL (       1 calls)
     electrons    :    583.59s CPU    591.50s WALL (       1 calls)

     Called by init_run:
     wfcinit      :     10.66s CPU     10.76s WALL (       1 calls)
     wfcinit:atom :      0.06s CPU      0.06s WALL (      44 calls)
     wfcinit:wfcr :     10.37s CPU     10.46s WALL (      44 calls)
     potinit      :      0.32s CPU      0.33s WALL (       1 calls)
     hinit0       :      0.61s CPU      0.62s WALL (       1 calls)

     Called by electrons:
     c_bands      :    508.94s CPU    512.79s WALL (      15 calls)
     sum_band     :     66.76s CPU     69.17s WALL (      15 calls)
     v_of_rho     :      0.48s CPU      0.51s WALL (      15 calls)
     v_h          :      0.27s CPU      0.27s WALL (      15 calls)
     v_xc         :      0.21s CPU      0.24s WALL (      15 calls)
     newd         :      6.16s CPU      7.50s WALL (      15 calls)
     PAW_pot      :      0.88s CPU      0.88s WALL (      15 calls)
     mix_rho      :      0.53s CPU      0.53s WALL (      15 calls)

     Called by c_bands:
     init_us_2    :      2.02s CPU      2.04s WALL (    1364 calls)
     cegterg      :    502.32s CPU    506.00s WALL (     660 calls)

     Called by sum_band:
     sum_band:wei :      0.05s CPU      0.05s WALL (      15 calls)
     sum_band:loo :     57.96s CPU     58.65s WALL (      15 calls)
     sum_band:buf :      0.87s CPU      0.87s WALL (     660 calls)
     sum_band:ini :      0.93s CPU      0.93s WALL (     660 calls)
     sum_band:cal :     14.86s CPU     14.91s WALL (     660 calls)
     sum_band:bec :      0.08s CPU      0.08s WALL (     660 calls)
     addusdens    :      8.39s CPU     10.08s WALL (      15 calls)
     addusd:skk   :      0.04s CPU      0.05s WALL (      30 calls)
     addusd:dgemm :      3.34s CPU      4.75s WALL (      30 calls)
     addusd:qvan2 :      4.54s CPU      4.55s WALL (      30 calls)

     Called by *egterg:
     cdiaghg      :     17.83s CPU     17.85s WALL (    3085 calls)
     cegterg:over :     60.32s CPU     60.46s WALL (    2469 calls)
     cegterg:upda :     32.25s CPU     32.30s WALL (    2469 calls)
     cegterg:last :     89.17s CPU     89.25s WALL (    1166 calls)
     h_psi        :    245.02s CPU    248.36s WALL (    3173 calls)
     s_psi        :     32.46s CPU     32.52s WALL (    3173 calls)
     g_psi        :      0.65s CPU      0.66s WALL (    2469 calls)

     Called by h_psi:
     h_psi:calbec :     36.43s CPU     36.58s WALL (    3173 calls)
     vloc_psi     :    175.94s CPU    179.02s WALL (    3173 calls)
     add_vuspsi   :     30.77s CPU     30.85s WALL (    3173 calls)

     General routines
     calbec       :     51.27s CPU     51.48s WALL (    3833 calls)
     fft          :      1.22s CPU      1.24s WALL (      89 calls)
     ffts         :      0.05s CPU      0.05s WALL (      30 calls)
     fftw         :    190.81s CPU    194.14s WALL (  228702 calls)
     interpolate  :      0.26s CPU      0.26s WALL (      15 calls)

     Parallel routines
     fft_scatt_xy :     21.30s CPU     21.65s WALL (  228821 calls)
     fft_scatt_yz :     14.73s CPU     15.06s WALL (  228821 calls)

     PAW routines
     PAW_pot      :      0.88s CPU      0.88s WALL (      15 calls)
     PAW_symme    :      0.00s CPU      0.00s WALL (      30 calls)

     PWSCF        :   9m57.11s CPU  10m 6.99s WALL


   This run was terminated on:  18: 0: 1  14Jun2021            

=------------------------------------------------------------------------------=
   JOB DONE.
=------------------------------------------------------------------------------=
