
     Program PWSCF v.6.6 starts on 14Jun2021 at 16:44:31 

     This program is part of the open-source Quantum ESPRESSO suite
     for quantum simulation of materials; please cite
         "P. Giannozzi et al., J. Phys.:Condens. Matter 21 395502 (2009);
         "P. Giannozzi et al., J. Phys.:Condens. Matter 29 465901 (2017);
          URL http://www.quantum-espresso.org", 
     in publications or presentations arising from this work. More details at
     http://www.quantum-espresso.org/quote

     Parallel version (MPI), running on     2 processors

     MPI processes distributed on     1 nodes
     R & G space division:  proc/nbgrp/npool/nimage =       2
     Fft bands division:     nmany     =       1
     Waiting for input...
     Reading input from standard input

     Current dimensions of program PWSCF are:
     Max number of different atomic species (ntypx) = 10
     Max number of k-points (npk) =  40000
     Max angular momentum in pseudopotentials (lmaxx) =  3
     file Nb.pz-spn-kjpaw_psl.1.0.0.UPF: wavefunction(s)  4S 4P 4D renormalized
     file S.pz-n-kjpaw_psl.0.1.UPF: wavefunction(s)  3P renormalized

     Subspace diagonalization in iterative solution of the eigenvalue problem:
     a serial algorithm will be used


     Parallelization info
     --------------------
     sticks:   dense  smooth     PW     G-vecs:    dense   smooth      PW
     Min         534     210     60                85019    21488    3582
     Max         535     211     61                85022    21517    3607
     Sum        1069     421    121               170041    43005    7189



     bravais-lattice index     =            4
     lattice parameter (alat)  =       6.2006  a.u.
     unit-cell volume          =    1258.4114 (a.u.)^3
     number of atoms/cell      =            6
     number of atomic types    =            2
     number of electrons       =        50.00
     number of Kohn-Sham states=           60
     kinetic-energy cutoff     =      40.0000  Ry
     charge density cutoff     =     400.0000  Ry
     convergence threshold     =      1.0E-08
     mixing beta               =       0.7000
     number of iterations used =            8  plain     mixing
     Exchange-correlation= SLA PZ NOGX NOGC
                           (   1   1   0   0   0   0   0)

     celldm(1)=   6.200569  celldm(2)=   0.000000  celldm(3)=   6.095331
     celldm(4)=   0.000000  celldm(5)=   0.000000  celldm(6)=   0.000000

     crystal axes: (cart. coord. in units of alat)
               a(1) = (   1.000000   0.000000   0.000000 )  
               a(2) = (  -0.500000   0.866025   0.000000 )  
               a(3) = (   0.000000   0.000000   6.095331 )  

     reciprocal axes: (cart. coord. in units 2 pi/alat)
               b(1) = (  1.000000  0.577350 -0.000000 )  
               b(2) = (  0.000000  1.154701  0.000000 )  
               b(3) = (  0.000000 -0.000000  0.164060 )  


     PseudoPot. # 1 for Nb read from file:
     ../Nb.pz-spn-kjpaw_psl.1.0.0.UPF
     MD5 check sum: 38c2e04b3cc915696ca8dc9f46a23270
     Pseudo is Projector augmented-wave + core cor, Zval = 13.0
     Generated using "atomic" code by A. Dal Corso v.6.2.2
     Shape of augmentation charge: PSQ
     Using radial grid of 1227 points,  6 beta functions with: 
                l(1) =   0
                l(2) =   0
                l(3) =   1
                l(4) =   1
                l(5) =   2
                l(6) =   2
     Q(r) pseudized with 0 coefficients 


     PseudoPot. # 2 for S  read from file:
     ../S.pz-n-kjpaw_psl.0.1.UPF
     MD5 check sum: c0b1682311cf098e03f7841691d9a679
     Pseudo is Projector augmented-wave + core cor, Zval =  6.0
     Generated using "atomic" code by A. Dal Corso v.5.0.2 svn rev. 9415
     Shape of augmentation charge: PSQ
     Using radial grid of 1151 points,  4 beta functions with: 
                l(1) =   0
                l(2) =   0
                l(3) =   1
                l(4) =   1
     Q(r) pseudized with 0 coefficients 


     atomic species   valence    mass     pseudopotential
        Nb            13.00    92.90600     Nb( 1.00)
        S              6.00    32.06500     S ( 1.00)

      6 Sym. Ops. (no inversion) found


                                    s                        frac. trans.

      isym =  1     identity                                     

 cryst.   s( 1) = (     1          0          0      )
                  (     0          1          0      )
                  (     0          0          1      )

 cart.    s( 1) = (  1.0000000  0.0000000  0.0000000 )
                  (  0.0000000  1.0000000  0.0000000 )
                  (  0.0000000  0.0000000  1.0000000 )


      isym =  2     120 deg rotation - cryst. axis [0,0,1]       

 cryst.   s( 2) = (     0          1          0      )
                  (    -1         -1          0      )
                  (     0          0          1      )

 cart.    s( 2) = ( -0.5000000 -0.8660254  0.0000000 )
                  (  0.8660254 -0.5000000  0.0000000 )
                  (  0.0000000  0.0000000  1.0000000 )


      isym =  3     120 deg rotation - cryst. axis [0,0,-1]      

 cryst.   s( 3) = (    -1         -1          0      )
                  (     1          0          0      )
                  (     0          0          1      )

 cart.    s( 3) = ( -0.5000000  0.8660254  0.0000000 )
                  ( -0.8660254 -0.5000000  0.0000000 )
                  (  0.0000000  0.0000000  1.0000000 )


      isym =  4     inv. 180 deg rotation - cart. axis [1,0,0]   

 cryst.   s( 4) = (    -1          0          0      )
                  (     1          1          0      )
                  (     0          0          1      )

 cart.    s( 4) = ( -1.0000000  0.0000000  0.0000000 )
                  (  0.0000000  1.0000000  0.0000000 )
                  (  0.0000000  0.0000000  1.0000000 )


      isym =  5     inv. 180 deg rotation - cryst. axis [0,1,0]  

 cryst.   s( 5) = (     1          1          0      )
                  (     0         -1          0      )
                  (     0          0          1      )

 cart.    s( 5) = (  0.5000000  0.8660254  0.0000000 )
                  (  0.8660254 -0.5000000  0.0000000 )
                  (  0.0000000  0.0000000  1.0000000 )


      isym =  6     inv. 180 deg rotation - cryst. axis [1,1,0]  

 cryst.   s( 6) = (     0         -1          0      )
                  (    -1          0          0      )
                  (     0          0          1      )

 cart.    s( 6) = (  0.5000000 -0.8660254  0.0000000 )
                  ( -0.8660254 -0.5000000  0.0000000 )
                  (  0.0000000  0.0000000  1.0000000 )


     point group C_3v (3m)  
     there are  3 classes
     the character table:

       E     2C3   3s_v 
A_1    1.00  1.00  1.00
A_2    1.00  1.00 -1.00
E      2.00 -1.00  0.00

     the symmetry operations in each class and the name of the first element:

     E        1
          identity                                               
     2C3      2    3
          120 deg rotation - cryst. axis [0,0,1]                 
     3s_v     4    5    6
          inv. 180 deg rotation - cart. axis [1,0,0]             

   Cartesian axes

     site n.     atom                  positions (alat units)
         1           S   tau(   1) = (   0.0000000   0.5773503   1.4932768  )
         2           Nb  tau(   2) = (   0.0000000   0.0000000   1.0094618  )
         3           S   tau(   3) = (   0.0000000   0.5773503   0.5321904  )
         4           S   tau(   4) = (   0.5000000   0.2886751   2.5511139  )
         5           Nb  tau(   5) = (   0.0000000   0.0000000   3.0283905  )
         6           S   tau(   6) = (   0.5000000   0.2886751   3.5056620  )

   Crystallographic axes

     site n.     atom                  positions (cryst. coord.)
         1           S   tau(   1) = (  0.3333333  0.6666667  0.2449870  )
         2           Nb  tau(   2) = (  0.0000000  0.0000000  0.1656123  )
         3           S   tau(   3) = (  0.3333333  0.6666667  0.0873112  )
         4           S   tau(   4) = (  0.6666667  0.3333333  0.4185358  )
         5           Nb  tau(   5) = (  0.0000000  0.0000000  0.4968378  )
         6           S   tau(   6) = (  0.6666667  0.3333333  0.5751389  )

     number of k points=    12  Methfessel-Paxton smearing, width (Ry)=  0.0200
                       cart. coord. in units 2pi/alat
        k(    1) = (   0.0000000   0.0000000   0.0000000), wk =   0.0246914
        k(    2) = (   0.0000000   0.1283001   0.0000000), wk =   0.1481481
        k(    3) = (   0.0000000   0.2566001   0.0000000), wk =   0.1481481
        k(    4) = (   0.0000000   0.3849002   0.0000000), wk =   0.1481481
        k(    5) = (   0.0000000   0.5132002   0.0000000), wk =   0.1481481
        k(    6) = (   0.1111111   0.1924501   0.0000000), wk =   0.1481481
        k(    7) = (   0.1111111   0.3207501   0.0000000), wk =   0.2962963
        k(    8) = (   0.1111111   0.4490502   0.0000000), wk =   0.2962963
        k(    9) = (   0.1111111   0.5773503   0.0000000), wk =   0.1481481
        k(   10) = (   0.2222222   0.3849002   0.0000000), wk =   0.1481481
        k(   11) = (   0.2222222   0.5132002   0.0000000), wk =   0.2962963
        k(   12) = (   0.3333333   0.5773503   0.0000000), wk =   0.0493827

                       cryst. coord.
        k(    1) = (   0.0000000   0.0000000   0.0000000), wk =   0.0246914
        k(    2) = (   0.0000000   0.1111111   0.0000000), wk =   0.1481481
        k(    3) = (   0.0000000   0.2222222   0.0000000), wk =   0.1481481
        k(    4) = (   0.0000000   0.3333333   0.0000000), wk =   0.1481481
        k(    5) = (   0.0000000   0.4444444   0.0000000), wk =   0.1481481
        k(    6) = (   0.1111111   0.1111111   0.0000000), wk =   0.1481481
        k(    7) = (   0.1111111   0.2222222   0.0000000), wk =   0.2962963
        k(    8) = (   0.1111111   0.3333333   0.0000000), wk =   0.2962963
        k(    9) = (   0.1111111   0.4444444   0.0000000), wk =   0.1481481
        k(   10) = (   0.2222222   0.2222222   0.0000000), wk =   0.1481481
        k(   11) = (   0.2222222   0.3333333   0.0000000), wk =   0.2962963
        k(   12) = (   0.3333333   0.3333333   0.0000000), wk =   0.0493827

     Dense  grid:   170041 G-vectors     FFT dimensions: (  40,  40, 243)

     Smooth grid:    43005 G-vectors     FFT dimensions: (  25,  25, 160)

     Dynamical RAM for                 wfc:       2.46 MB

     Dynamical RAM for     wfc (w. buffer):      31.99 MB

     Dynamical RAM for           str. fact:       2.59 MB

     Dynamical RAM for           local pot:       0.00 MB

     Dynamical RAM for          nlocal pot:       2.79 MB

     Dynamical RAM for                qrad:       3.21 MB

     Dynamical RAM for          rho,v,vnew:       8.36 MB

     Dynamical RAM for               rhoin:       2.79 MB

     Dynamical RAM for            rho*nmix:      20.76 MB

     Dynamical RAM for           G-vectors:       5.03 MB

     Dynamical RAM for          h,s,v(r/c):       0.66 MB

     Dynamical RAM for          <psi|beta>:       0.06 MB

     Dynamical RAM for                 psi:       4.92 MB

     Dynamical RAM for                hpsi:       4.92 MB

     Dynamical RAM for                spsi:       4.92 MB

     Dynamical RAM for      wfcinit/wfcrot:       5.00 MB

     Dynamical RAM for           addusdens:     246.48 MB

     Estimated static dynamical RAM per process >      88.86 MB

     Estimated max dynamical RAM per process >     335.34 MB

     Estimated total dynamical RAM >     670.68 MB

     Initial potential from superposition of free atoms

     starting charge   49.99775, renormalised to   50.00000

     negative rho (up, down):  7.872E-05 0.000E+00
     Starting wfcs are   42 randomized atomic wfcs +   18 random wfcs
     Checking if some PAW data can be deallocated... 

     total cpu time spent up to now is        5.4 secs

     Self-consistent Calculation

     iteration #  1     ecut=    40.00 Ry     beta= 0.70
     Davidson diagonalization with overlap
     ethr =  1.00E-02,  avg # of iterations =  7.8

     Threshold (ethr) on eigenvalues was too large:
     Diagonalizing with lowered threshold

     Davidson diagonalization with overlap
     ethr =  5.34E-04,  avg # of iterations =  2.2

     negative rho (up, down):  1.252E-04 0.000E+00

     total cpu time spent up to now is       35.7 secs

     total energy              =    -907.81230604 Ry
     estimated scf accuracy    <       0.26820056 Ry

     iteration #  2     ecut=    40.00 Ry     beta= 0.70
     Davidson diagonalization with overlap
     ethr =  5.36E-04,  avg # of iterations =  5.6

     negative rho (up, down):  1.424E-04 0.000E+00

     total cpu time spent up to now is       49.4 secs

     total energy              =    -907.49668910 Ry
     estimated scf accuracy    <       2.91871145 Ry

     iteration #  3     ecut=    40.00 Ry     beta= 0.70
     Davidson diagonalization with overlap
     ethr =  5.36E-04,  avg # of iterations =  7.5

     negative rho (up, down):  1.216E-04 0.000E+00

     total cpu time spent up to now is       63.1 secs

     total energy              =    -906.75859455 Ry
     estimated scf accuracy    <      43.92606330 Ry

     iteration #  4     ecut=    40.00 Ry     beta= 0.70
     Davidson diagonalization with overlap
     ethr =  5.36E-04,  avg # of iterations =  7.2

     negative rho (up, down):  1.217E-04 0.000E+00

     total cpu time spent up to now is       76.5 secs

     total energy              =    -907.89505019 Ry
     estimated scf accuracy    <       0.13776774 Ry

     iteration #  5     ecut=    40.00 Ry     beta= 0.70
     Davidson diagonalization with overlap
     ethr =  2.76E-04,  avg # of iterations =  2.0

     negative rho (up, down):  1.243E-04 0.000E+00

     total cpu time spent up to now is       87.1 secs

     total energy              =    -907.90858965 Ry
     estimated scf accuracy    <       0.07021146 Ry

     iteration #  6     ecut=    40.00 Ry     beta= 0.70
     Davidson diagonalization with overlap
     ethr =  1.40E-04,  avg # of iterations =  2.2

     negative rho (up, down):  1.258E-04 0.000E+00

     total cpu time spent up to now is       97.4 secs

     total energy              =    -907.90828942 Ry
     estimated scf accuracy    <       0.04494314 Ry

     iteration #  7     ecut=    40.00 Ry     beta= 0.70
     Davidson diagonalization with overlap
     ethr =  8.99E-05,  avg # of iterations =  3.2

     negative rho (up, down):  1.278E-04 0.000E+00

     total cpu time spent up to now is      107.6 secs

     total energy              =    -907.91077800 Ry
     estimated scf accuracy    <       0.00959602 Ry

     iteration #  8     ecut=    40.00 Ry     beta= 0.70
     Davidson diagonalization with overlap
     ethr =  1.92E-05,  avg # of iterations =  3.2

     negative rho (up, down):  1.295E-04 0.000E+00

     total cpu time spent up to now is      118.1 secs

     total energy              =    -907.91157579 Ry
     estimated scf accuracy    <       0.00131995 Ry

     iteration #  9     ecut=    40.00 Ry     beta= 0.70
     Davidson diagonalization with overlap
     c_bands:  1 eigenvalues not converged
     ethr =  2.64E-06,  avg # of iterations =  8.2

     negative rho (up, down):  1.315E-04 0.000E+00

     total cpu time spent up to now is      130.1 secs

     total energy              =    -907.91160541 Ry
     estimated scf accuracy    <       0.00326027 Ry

     iteration # 10     ecut=    40.00 Ry     beta= 0.70
     Davidson diagonalization with overlap
     ethr =  2.64E-06,  avg # of iterations =  1.2

     negative rho (up, down):  1.319E-04 0.000E+00

     total cpu time spent up to now is      139.4 secs

     total energy              =    -907.91178653 Ry
     estimated scf accuracy    <       0.00032509 Ry

     iteration # 11     ecut=    40.00 Ry     beta= 0.70
     Davidson diagonalization with overlap
     ethr =  6.50E-07,  avg # of iterations =  1.0

     negative rho (up, down):  1.320E-04 0.000E+00

     total cpu time spent up to now is      148.5 secs

     total energy              =    -907.91179457 Ry
     estimated scf accuracy    <       0.00000297 Ry

     iteration # 12     ecut=    40.00 Ry     beta= 0.70
     Davidson diagonalization with overlap
     ethr =  5.94E-09,  avg # of iterations =  1.2

     negative rho (up, down):  1.321E-04 0.000E+00

     total cpu time spent up to now is      157.9 secs

     total energy              =    -907.91179463 Ry
     estimated scf accuracy    <       0.00000143 Ry

     iteration # 13     ecut=    40.00 Ry     beta= 0.70
     Davidson diagonalization with overlap
     ethr =  2.86E-09,  avg # of iterations =  1.0

     negative rho (up, down):  1.321E-04 0.000E+00

     total cpu time spent up to now is      167.1 secs

     total energy              =    -907.91179466 Ry
     estimated scf accuracy    <       0.00000011 Ry

     iteration # 14     ecut=    40.00 Ry     beta= 0.70
     Davidson diagonalization with overlap
     ethr =  2.28E-10,  avg # of iterations =  1.3

     negative rho (up, down):  1.321E-04 0.000E+00

     total cpu time spent up to now is      178.0 secs

     total energy              =    -907.91179467 Ry
     estimated scf accuracy    <       0.00000001 Ry

     iteration # 15     ecut=    40.00 Ry     beta= 0.70
     Davidson diagonalization with overlap
     ethr =  2.23E-11,  avg # of iterations =  1.8

     negative rho (up, down):  1.321E-04 0.000E+00

     total cpu time spent up to now is      188.3 secs

     End of self-consistent calculation

          k = 0.0000 0.0000 0.0000 (  5429 PWs)   bands (ev):

   -51.4502 -51.4365 -27.6640 -27.6567 -27.4317 -27.4317 -27.4222 -27.4222
   -10.3504 -10.2856  -9.0608  -8.9607  -2.1120  -1.8077   0.9738   0.9738
     1.0243   1.0243   1.3935   2.0771   2.0771   2.1170   2.1170   2.1296
     3.8431   4.2766   6.3260   6.3260   6.3689   6.3689   6.5035   6.5035
     6.5377   6.5377   8.5514   8.7299   9.0068   9.6093  11.3531  11.5622
    11.6238  11.9814  13.8545  13.8545  13.8798  13.8798  14.0205  15.7613
    15.7997  15.7997  16.0492  16.0492  16.1262  17.1018  18.0540  18.5260
    18.6689  18.6689  18.8023  19.1731

     occupation numbers 
     1.0000   1.0000   1.0000   1.0000   1.0000   1.0000   1.0000   1.0000
     1.0000   1.0000   1.0000   1.0000   1.0000   1.0000   1.0000   1.0000
     1.0000   1.0000   1.0000   1.0000   1.0000   1.0000   1.0000   1.0000
    -0.0025  -0.0000  -0.0000  -0.0000  -0.0000  -0.0000  -0.0000  -0.0000
    -0.0000  -0.0000  -0.0000  -0.0000  -0.0000  -0.0000  -0.0000  -0.0000
    -0.0000  -0.0000  -0.0000  -0.0000  -0.0000  -0.0000  -0.0000  -0.0000
    -0.0000  -0.0000  -0.0000  -0.0000  -0.0000  -0.0000  -0.0000  -0.0000
    -0.0000  -0.0000  -0.0000  -0.0000

          k = 0.0000 0.1283 0.0000 (  5387 PWs)   bands (ev):

   -51.4450 -51.4312 -27.6526 -27.6452 -27.4857 -27.4767 -27.4436 -27.4342
   -10.1829 -10.1192  -9.0054  -8.9113  -1.9156  -1.6131   0.5557   0.6010
     0.9468   1.1427   1.1910   1.3090   1.8045   1.8467   2.2333   2.5528
     3.7499   4.0363   6.1029   6.2438   6.2556   6.3457   6.3489   6.4032
     6.6712   6.7042   9.0211   9.4265   9.5848   9.9740  11.6185  11.8859
    12.3902  12.5190  13.2158  13.4548  14.2802  14.3529  14.4093  14.6529
    14.9518  15.7648  15.8342  16.0327  16.0873  17.1466  17.5028  18.2838
    18.4342  18.6044  18.9216  19.0186

     occupation numbers 
     1.0000   1.0000   1.0000   1.0000   1.0000   1.0000   1.0000   1.0000
     1.0000   1.0000   1.0000   1.0000   1.0000   1.0000   1.0000   1.0000
     1.0000   1.0000   1.0000   1.0000   1.0000   1.0000   1.0000   1.0016
    -0.0086  -0.0001  -0.0000  -0.0000  -0.0000  -0.0000  -0.0000  -0.0000
    -0.0000  -0.0000  -0.0000  -0.0000  -0.0000  -0.0000  -0.0000  -0.0000
    -0.0000  -0.0000  -0.0000  -0.0000  -0.0000  -0.0000  -0.0000  -0.0000
    -0.0000  -0.0000  -0.0000  -0.0000  -0.0000  -0.0000  -0.0000  -0.0000
    -0.0000  -0.0000  -0.0000  -0.0000

          k = 0.0000 0.2566 0.0000 (  5369 PWs)   bands (ev):

   -51.4317 -51.4178 -27.6240 -27.6202 -27.6160 -27.6126 -27.4737 -27.4645
    -9.7338  -9.6744  -8.8571  -8.7793  -1.5106  -1.2431  -0.1910  -0.1602
     0.1968   0.4144   1.2526   1.2883   1.5698   1.6232   2.0509   2.4086
     3.2771   3.3764   5.8101   6.1267   6.1828   6.1889   6.4574   6.6766
     7.3134   7.3706   9.6878  10.2039  10.7736  11.3562  11.9663  12.3290
    12.5157  12.6689  12.7690  13.1531  14.2168  14.5702  14.9708  15.1389
    15.5207  15.5943  15.6529  15.9745  16.4092  16.5661  16.8065  17.2511
    17.4728  17.8404  18.0952  18.9930

     occupation numbers 
     1.0000   1.0000   1.0000   1.0000   1.0000   1.0000   1.0000   1.0000
     1.0000   1.0000   1.0000   1.0000   1.0000   1.0000   1.0000   1.0000
     1.0000   1.0000   1.0000   1.0000   1.0000   1.0000   1.0000   1.0001
     0.3037   0.0782  -0.0000  -0.0000  -0.0000  -0.0000  -0.0000  -0.0000
    -0.0000  -0.0000  -0.0000  -0.0000  -0.0000  -0.0000  -0.0000  -0.0000
    -0.0000  -0.0000  -0.0000  -0.0000  -0.0000  -0.0000  -0.0000  -0.0000
    -0.0000  -0.0000  -0.0000  -0.0000  -0.0000  -0.0000  -0.0000  -0.0000
    -0.0000  -0.0000  -0.0000  -0.0000

          k = 0.0000 0.3849 0.0000 (  5379 PWs)   bands (ev):

   -51.4164 -51.4025 -27.7699 -27.7632 -27.5908 -27.5826 -27.5077 -27.4988
    -9.1628  -9.1137  -8.6706  -8.6156  -1.6253  -1.5190  -0.5921  -0.4477
    -0.3483  -0.2732   0.7622   0.8035   1.7274   2.0266   2.0738   2.0839
     2.8333   2.9214   6.1246   6.1334   6.1718   6.4537   6.9933   7.2512
     7.8158   7.9087  10.4019  10.7257  10.8523  11.0219  11.2990  11.8562
    11.9452  12.7998  13.1347  13.8864  14.1111  14.8253  15.0228  15.1171
    15.3777  15.4837  16.1504  16.7577  16.8130  17.0676  17.3555  17.4369
    17.9846  18.0730  18.1492  18.1799

     occupation numbers 
     1.0000   1.0000   1.0000   1.0000   1.0000   1.0000   1.0000   1.0000
     1.0000   1.0000   1.0000   1.0000   1.0000   1.0000   1.0000   1.0000
     1.0000   1.0000   1.0000   1.0000   1.0000   1.0000   1.0000   1.0000
     1.0321   1.0308  -0.0000  -0.0000  -0.0000  -0.0000  -0.0000  -0.0000
    -0.0000  -0.0000  -0.0000  -0.0000  -0.0000  -0.0000  -0.0000  -0.0000
    -0.0000  -0.0000  -0.0000  -0.0000  -0.0000  -0.0000  -0.0000  -0.0000
    -0.0000  -0.0000  -0.0000  -0.0000  -0.0000  -0.0000  -0.0000  -0.0000
    -0.0000  -0.0000  -0.0000  -0.0000

          k = 0.0000 0.5132 0.0000 (  5382 PWs)   bands (ev):

   -51.4065 -51.3924 -27.8654 -27.8595 -27.5691 -27.5607 -27.5298 -27.5210
    -8.7365  -8.7032  -8.5343  -8.4997  -2.0109  -1.9646  -1.0499  -0.9232
    -0.3974  -0.3645   0.4896   0.5321   1.5649   1.9097   2.2808   2.3313
     2.9744   3.0877   6.3473   6.3622   6.6544   6.7842   7.2688   7.5585
     8.0423   8.1623   9.5335   9.9886  10.9952  11.0559  11.3015  11.6633
    12.2086  12.7982  13.3500  13.5162  13.5924  14.1011  14.2206  14.4822
    15.1886  15.2678  16.2531  16.9803  17.4436  17.7240  17.8435  18.3569
    18.5630  18.8901  19.4781  19.7110

     occupation numbers 
     1.0000   1.0000   1.0000   1.0000   1.0000   1.0000   1.0000   1.0000
     1.0000   1.0000   1.0000   1.0000   1.0000   1.0000   1.0000   1.0000
     1.0000   1.0000   1.0000   1.0000   1.0000   1.0000   1.0000   1.0000
     1.0065   0.8455  -0.0000  -0.0000  -0.0000  -0.0000  -0.0000  -0.0000
    -0.0000  -0.0000  -0.0000  -0.0000  -0.0000  -0.0000  -0.0000  -0.0000
    -0.0000  -0.0000  -0.0000  -0.0000  -0.0000  -0.0000  -0.0000  -0.0000
    -0.0000  -0.0000  -0.0000  -0.0000  -0.0000  -0.0000  -0.0000  -0.0000
    -0.0000  -0.0000  -0.0000  -0.0000

          k = 0.1111 0.1925 0.0000 (  5365 PWs)   bands (ev):

   -51.4357 -51.4218 -27.6325 -27.6249 -27.5752 -27.5670 -27.4694 -27.4603
    -9.8740  -9.8130  -8.9030  -8.8200  -1.5955  -1.3047  -0.0013   0.0340
     0.4944   0.7609   1.1562   1.1831   1.4009   1.4534   2.3550   2.6497
     3.4648   3.5729   5.7845   6.0275   6.1734   6.2423   6.2568   6.4252
     7.2477   7.3065   9.5064  10.0691  10.6778  11.0220  12.0141  12.1174
    12.6360  13.0104  13.1557  13.2484  13.9910  14.1835  14.5019  14.8761
    14.9023  15.4659  15.7306  15.9315  16.0286  16.8910  17.3087  17.5143
    17.5663  18.1968  18.4015  19.3976

     occupation numbers 
     1.0000   1.0000   1.0000   1.0000   1.0000   1.0000   1.0000   1.0000
     1.0000   1.0000   1.0000   1.0000   1.0000   1.0000   1.0000   1.0000
     1.0000   1.0000   1.0000   1.0000   1.0000   1.0000   1.0000   1.0064
    -0.0161  -0.0341  -0.0000  -0.0000  -0.0000  -0.0000  -0.0000  -0.0000
    -0.0000  -0.0000  -0.0000  -0.0000  -0.0000  -0.0000  -0.0000  -0.0000
    -0.0000  -0.0000  -0.0000  -0.0000  -0.0000  -0.0000  -0.0000  -0.0000
    -0.0000  -0.0000  -0.0000  -0.0000  -0.0000  -0.0000  -0.0000  -0.0000
    -0.0000  -0.0000  -0.0000  -0.0000

          k = 0.1111 0.3208 0.0000 (  5383 PWs)   bands (ev):

   -51.4214 -51.4075 -27.7061 -27.6990 -27.6016 -27.5936 -27.5127 -27.5038
    -9.3592  -9.3055  -8.7315  -8.6680  -1.3980  -1.2264  -0.3920  -0.3127
    -0.1757  -0.0677   0.5537   0.6734   1.6120   1.6530   2.1683   2.4206
     3.0153   3.0537   5.7062   5.9605   6.3111   6.4473   6.5818   6.7798
     7.8675   7.9233  10.2760  10.7197  11.2900  11.6598  11.9834  12.2241
    12.4871  12.7936  13.1207  13.3250  14.2531  14.6874  14.7432  14.8575
    14.9852  15.1169  15.4433  15.8340  16.1378  16.9199  16.9788  17.6655
    17.9191  18.1895  18.3896  18.9987

     occupation numbers 
     1.0000   1.0000   1.0000   1.0000   1.0000   1.0000   1.0000   1.0000
     1.0000   1.0000   1.0000   1.0000   1.0000   1.0000   1.0000   1.0000
     1.0000   1.0000   1.0000   1.0000   1.0000   1.0000   1.0000   1.0002
     0.9676   0.9116  -0.0000  -0.0000  -0.0000  -0.0000  -0.0000  -0.0000
    -0.0000  -0.0000  -0.0000  -0.0000  -0.0000  -0.0000  -0.0000  -0.0000
    -0.0000  -0.0000  -0.0000  -0.0000  -0.0000  -0.0000  -0.0000  -0.0000
    -0.0000  -0.0000  -0.0000  -0.0000  -0.0000  -0.0000  -0.0000  -0.0000
    -0.0000  -0.0000  -0.0000  -0.0000

          k = 0.1111 0.4491 0.0000 (  5376 PWs)   bands (ev):

   -51.4088 -51.3948 -27.8182 -27.8120 -27.5742 -27.5658 -27.5509 -27.5423
    -8.8465  -8.8068  -8.5610  -8.5199  -1.7193  -1.6547  -0.9529  -0.8620
    -0.3046  -0.2544   0.4308   0.5262   1.6152   1.6694   1.7887   2.0468
     3.0468   3.1162   6.0747   6.2729   6.6310   6.6836   7.1417   7.3248
     8.0053   8.1053  10.2750  10.6813  11.2139  11.3994  11.4888  11.9794
    12.2822  13.0900  13.2963  13.4539  13.9042  14.0463  14.1369  14.9054
    15.4928  15.5246  16.1392  16.5699  16.6397  16.8845  17.6499  17.7291
    17.9961  18.1367  18.5503  19.1710

     occupation numbers 
     1.0000   1.0000   1.0000   1.0000   1.0000   1.0000   1.0000   1.0000
     1.0000   1.0000   1.0000   1.0000   1.0000   1.0000   1.0000   1.0000
     1.0000   1.0000   1.0000   1.0000   1.0000   1.0000   1.0000   1.0000
     0.9232   0.7784  -0.0000  -0.0000  -0.0000  -0.0000  -0.0000  -0.0000
    -0.0000  -0.0000  -0.0000  -0.0000  -0.0000  -0.0000  -0.0000  -0.0000
    -0.0000  -0.0000  -0.0000  -0.0000  -0.0000  -0.0000  -0.0000  -0.0000
    -0.0000  -0.0000  -0.0000  -0.0000  -0.0000  -0.0000  -0.0000  -0.0000
    -0.0000  -0.0000  -0.0000  -0.0000

          k = 0.1111 0.5774 0.0000 (  5372 PWs)   bands (ev):

   -51.4038 -51.3898 -27.8619 -27.8560 -27.5660 -27.5633 -27.5575 -27.5548
    -8.6213  -8.5932  -8.4859  -8.4569  -1.8909  -1.8599  -1.2422  -1.1553
    -0.3668  -0.3470   0.4495   0.5032   1.5914   1.6502   1.7158   1.8736
     3.2510   3.3428   6.2923   6.3280   6.8812   6.9798   7.5926   7.6619
     7.6952   7.9668   9.4578  10.0905  11.6109  11.7584  11.9284  12.0913
    12.5396  12.6755  12.6814  13.3679  13.6717  13.8140  14.2423  14.3415
    15.1422  15.4461  16.3108  16.6994  17.0988  17.4744  17.7211  17.9027
    18.4340  18.5340  19.1633  19.2461

     occupation numbers 
     1.0000   1.0000   1.0000   1.0000   1.0000   1.0000   1.0000   1.0000
     1.0000   1.0000   1.0000   1.0000   1.0000   1.0000   1.0000   1.0000
     1.0000   1.0000   1.0000   1.0000   1.0000   1.0000   1.0000   1.0000
     0.3800   0.1407  -0.0000  -0.0000  -0.0000  -0.0000  -0.0000  -0.0000
    -0.0000  -0.0000  -0.0000  -0.0000  -0.0000  -0.0000  -0.0000  -0.0000
    -0.0000  -0.0000  -0.0000  -0.0000  -0.0000  -0.0000  -0.0000  -0.0000
    -0.0000  -0.0000  -0.0000  -0.0000  -0.0000  -0.0000  -0.0000  -0.0000
    -0.0000  -0.0000  -0.0000  -0.0000

          k = 0.2222 0.3849 0.0000 (  5374 PWs)   bands (ev):

   -51.4097 -51.3957 -27.7782 -27.7717 -27.5815 -27.5762 -27.5730 -27.5679
    -8.8913  -8.8489  -8.5678  -8.5237  -1.4631  -1.3707  -0.8906  -0.8627
    -0.2028  -0.1008   0.2956   0.4646   1.0399   1.0697   2.0274   2.1825
     3.0794   3.1113   5.8660   6.2060   6.6807   6.6889   6.8388   6.9979
     8.2507   8.2979  10.8833  11.1621  11.3558  11.4181  11.8582  12.4319
    12.7054  13.0532  13.2205  13.5559  14.1216  14.2649  14.5655  14.8052
    15.0586  15.3521  15.5196  15.5825  15.8851  16.9799  17.2691  17.4146
    17.8716  18.0796  18.3894  19.2044

     occupation numbers 
     1.0000   1.0000   1.0000   1.0000   1.0000   1.0000   1.0000   1.0000
     1.0000   1.0000   1.0000   1.0000   1.0000   1.0000   1.0000   1.0000
     1.0000   1.0000   1.0000   1.0000   1.0000   1.0000   1.0000   1.0000
     0.8630   0.7907  -0.0000  -0.0000  -0.0000  -0.0000  -0.0000  -0.0000
    -0.0000  -0.0000  -0.0000  -0.0000  -0.0000  -0.0000  -0.0000  -0.0000
    -0.0000  -0.0000  -0.0000  -0.0000  -0.0000  -0.0000  -0.0000  -0.0000
    -0.0000  -0.0000  -0.0000  -0.0000  -0.0000  -0.0000  -0.0000  -0.0000
    -0.0000  -0.0000  -0.0000  -0.0000

          k = 0.2222 0.5132 0.0000 (  5371 PWs)   bands (ev):

   -51.4021 -51.3880 -27.8129 -27.8068 -27.6382 -27.6301 -27.5597 -27.5511
    -8.5544  -8.5274  -8.4432  -8.4162  -1.4598  -1.4307  -1.4202  -1.3810
    -0.2385  -0.1687   0.4847   0.5584   0.6118   0.6489   1.6401   1.7832
     3.4565   3.4941   5.9542   6.0144   6.9857   7.1048   7.2230   7.3245
     8.2964   8.4307  10.0942  10.6884  11.3418  11.8917  12.0886  12.6830
    12.9060  13.0662  13.2635  13.9484  14.0744  14.4432  14.6379  15.0000
    15.2363  15.5663  15.8639  16.0652  16.3149  16.5903  16.6414  16.9348
    17.6132  17.8308  17.9689  18.6453

     occupation numbers 
     1.0000   1.0000   1.0000   1.0000   1.0000   1.0000   1.0000   1.0000
     1.0000   1.0000   1.0000   1.0000   1.0000   1.0000   1.0000   1.0000
     1.0000   1.0000   1.0000   1.0000   1.0000   1.0000   1.0000   1.0000
    -0.0112  -0.0285  -0.0000  -0.0000  -0.0000  -0.0000  -0.0000  -0.0000
    -0.0000  -0.0000  -0.0000  -0.0000  -0.0000  -0.0000  -0.0000  -0.0000
    -0.0000  -0.0000  -0.0000  -0.0000  -0.0000  -0.0000  -0.0000  -0.0000
    -0.0000  -0.0000  -0.0000  -0.0000  -0.0000  -0.0000  -0.0000  -0.0000
    -0.0000  -0.0000  -0.0000  -0.0000

          k = 0.3333 0.5774 0.0000 (  5358 PWs)   bands (ev):

   -51.3994 -51.3854 -27.7719 -27.7660 -27.7119 -27.7038 -27.5539 -27.5453
    -8.4371  -8.4200  -8.3881  -8.3654  -1.6856  -1.6538  -0.9276  -0.8551
    -0.4367  -0.4214  -0.0010   0.0149   0.6848   0.8075   1.4605   1.4863
     3.8125   3.8149   5.5531   5.5779   6.9758   7.0145   7.5591   7.5938
     8.6489   8.6820  10.3802  10.6635  10.6694  11.3264  12.2312  13.6283
    13.6311  13.6411  14.1972  14.2080  14.5349  14.5391  14.9572  14.9873
    14.9996  15.5939  15.6914  16.0350  16.1271  16.1302  16.2688  16.5673
    16.5704  17.1194  18.5462  18.5672

     occupation numbers 
     1.0000   1.0000   1.0000   1.0000   1.0000   1.0000   1.0000   1.0000
     1.0000   1.0000   1.0000   1.0000   1.0000   1.0000   1.0000   1.0000
     1.0000   1.0000   1.0000   1.0000   1.0000   1.0000   1.0000   1.0000
    -0.0039  -0.0037  -0.0000  -0.0000  -0.0000  -0.0000  -0.0000  -0.0000
    -0.0000  -0.0000  -0.0000  -0.0000  -0.0000  -0.0000  -0.0000  -0.0000
    -0.0000  -0.0000  -0.0000  -0.0000  -0.0000  -0.0000  -0.0000  -0.0000
    -0.0000  -0.0000  -0.0000  -0.0000  -0.0000  -0.0000  -0.0000  -0.0000
    -0.0000  -0.0000  -0.0000  -0.0000

     the Fermi energy is     3.2120 ev

!    total energy              =    -907.91179467 Ry

     total all-electron energy =    -18448.320817 Ry
     estimated scf accuracy    <          4.6E-10 Ry
     smearing contrib. (-TS)   =      -0.00105780 Ry
     internal energy E=F+TS    =    -907.91073687 Ry

     The total energy is F=E-TS. E is the sum of the following terms:
     one-electron contribution =   -1048.08548084 Ry
     hartree contribution      =     537.57164660 Ry
     xc contribution           =     -65.32283087 Ry
     ewald contribution        =     256.18108273 Ry
     one-center paw contrib.   =    -588.25515449 Ry
      -> PAW hartree energy AE =     100.87248333 Ry
      -> PAW hartree energy PS =    -100.35836619 Ry
      -> PAW xc energy AE      =    -324.79813972 Ry
      -> PAW xc energy PS      =      30.15725700 Ry
      -> total E_H with PAW    =     538.08576374 Ry
      -> total E_XC with PAW   =    -359.96371358 Ry

     convergence has been achieved in  15 iterations

     Writing output data file ./tmp/NbS2_bi.save/

     init_run     :      4.21s CPU      4.39s WALL (       1 calls)
     electrons    :    178.17s CPU    182.88s WALL (       1 calls)

     Called by init_run:
     wfcinit      :      2.84s CPU      2.88s WALL (       1 calls)
     wfcinit:atom :      0.01s CPU      0.02s WALL (      12 calls)
     wfcinit:wfcr :      2.76s CPU      2.80s WALL (      12 calls)
     potinit      :      0.31s CPU      0.33s WALL (       1 calls)
     hinit0       :      0.60s CPU      0.61s WALL (       1 calls)

     Called by electrons:
     c_bands      :    143.85s CPU    145.00s WALL (      16 calls)
     sum_band     :     25.92s CPU     28.04s WALL (      16 calls)
     v_of_rho     :      0.48s CPU      0.53s WALL (      16 calls)
     v_h          :      0.27s CPU      0.29s WALL (      16 calls)
     v_xc         :      0.22s CPU      0.24s WALL (      16 calls)
     newd         :      6.54s CPU      7.98s WALL (      16 calls)
     PAW_pot      :      0.94s CPU      0.94s WALL (      16 calls)
     mix_rho      :      0.57s CPU      0.58s WALL (      16 calls)

     Called by c_bands:
     init_us_2    :      0.58s CPU      0.59s WALL (     396 calls)
     cegterg      :    142.10s CPU    143.20s WALL (     192 calls)

     Called by sum_band:
     sum_band:wei :      0.02s CPU      0.02s WALL (      16 calls)
     sum_band:loo :     16.66s CPU     16.89s WALL (      16 calls)
     sum_band:buf :      0.25s CPU      0.25s WALL (     192 calls)
     sum_band:ini :      0.27s CPU      0.27s WALL (     192 calls)
     sum_band:cal :      4.21s CPU      4.22s WALL (     192 calls)
     sum_band:bec :      0.02s CPU      0.02s WALL (     192 calls)
     addusdens    :      8.88s CPU     10.74s WALL (      16 calls)
     addusd:skk   :      0.03s CPU      0.05s WALL (      32 calls)
     addusd:dgemm :      3.55s CPU      5.11s WALL (      32 calls)
     addusd:qvan2 :      4.79s CPU      4.80s WALL (      32 calls)

     Called by *egterg:
     cdiaghg      :      4.86s CPU      4.87s WALL (     858 calls)
     cegterg:over :     16.98s CPU     17.04s WALL (     678 calls)
     cegterg:upda :      9.09s CPU      9.10s WALL (     678 calls)
     cegterg:last :     25.31s CPU     25.33s WALL (     342 calls)
     h_psi        :     70.28s CPU     71.27s WALL (     882 calls)
     s_psi        :      9.03s CPU      9.06s WALL (     882 calls)
     g_psi        :      0.19s CPU      0.20s WALL (     678 calls)

     Called by h_psi:
     h_psi:calbec :     10.27s CPU     10.31s WALL (     882 calls)
     vloc_psi     :     50.90s CPU     51.83s WALL (     882 calls)
     add_vuspsi   :      8.57s CPU      8.59s WALL (     882 calls)

     General routines
     calbec       :     14.47s CPU     14.52s WALL (    1074 calls)
     fft          :      1.24s CPU      1.32s WALL (      95 calls)
     ffts         :      0.06s CPU      0.06s WALL (      32 calls)
     fftw         :     55.35s CPU     56.37s WALL (   65772 calls)
     interpolate  :      0.27s CPU      0.28s WALL (      16 calls)

     Parallel routines
     fft_scatt_xy :      6.24s CPU      6.35s WALL (   65899 calls)
     fft_scatt_yz :      4.65s CPU      4.79s WALL (   65899 calls)

     PAW routines
     PAW_pot      :      0.94s CPU      0.94s WALL (      16 calls)
     PAW_symme    :      0.00s CPU      0.00s WALL (      32 calls)

     PWSCF        :   3m 3.56s CPU   3m 8.84s WALL


   This run was terminated on:  16:47:39  14Jun2021            

=------------------------------------------------------------------------------=
   JOB DONE.
=------------------------------------------------------------------------------=
