Invalid MIT-MAGIC-COOKIE-1 key
     Program PHONON v.6.6 starts on 17Jun2021 at 14:39:53 

     This program is part of the open-source Quantum ESPRESSO suite
     for quantum simulation of materials; please cite
         "P. Giannozzi et al., J. Phys.:Condens. Matter 21 395502 (2009);
         "P. Giannozzi et al., J. Phys.:Condens. Matter 29 465901 (2017);
          URL http://www.quantum-espresso.org", 
     in publications or presentations arising from this work. More details at
     http://www.quantum-espresso.org/quote

     Parallel version (MPI), running on     2 processors

     MPI processes distributed on     1 nodes
     R & G space division:  proc/nbgrp/npool/nimage =       2
     Fft bands division:     nmany     =       1

     Reading xml data from directory:

     ./MgB2.save/

     IMPORTANT: XC functional enforced from input :
     Exchange-correlation= PZ
                           (   1   1   0   0   0   0   0)
     Any further DFT definition will be discarded
     Please, verify this is what you really want


     Parallelization info
     --------------------
     sticks:   dense  smooth     PW     G-vecs:    dense   smooth      PW
     Min         189     189     60                 3328     3328     607
     Max         190     190     61                 3329     3329     608
     Sum         379     379    121                 6657     6657    1215

     Reading collected, re-writing distributed wavefunctions


     Dynamical matrices for ( 6, 6, 6)  uniform grid of q-points
     (  28 q-points):
       N         xq(1)         xq(2)         xq(3) 
       1   0.000000000   0.000000000   0.000000000
       2   0.000000000   0.000000000   0.145933920
       3   0.000000000   0.000000000   0.291867841
       4   0.000000000   0.000000000  -0.437801761
       5   0.000000000   0.192450090   0.000000000
       6   0.000000000   0.192450090   0.145933920
       7   0.000000000   0.192450090   0.291867841
       8   0.000000000   0.192450090  -0.437801761
       9   0.000000000   0.384900179   0.000000000
      10   0.000000000   0.384900179   0.145933920
      11   0.000000000   0.384900179   0.291867841
      12   0.000000000   0.384900179  -0.437801761
      13   0.000000000  -0.577350269   0.000000000
      14   0.000000000  -0.577350269   0.145933920
      15   0.000000000  -0.577350269   0.291867841
      16   0.000000000  -0.577350269  -0.437801761
      17   0.166666667   0.288675135   0.000000000
      18   0.166666667   0.288675135   0.145933920
      19   0.166666667   0.288675135   0.291867841
      20   0.166666667   0.288675135  -0.437801761
      21   0.166666667   0.481125224   0.000000000
      22   0.166666667   0.481125224   0.145933920
      23   0.166666667   0.481125224   0.291867841
      24   0.166666667   0.481125224  -0.437801761
      25   0.333333333   0.577350269   0.000000000
      26   0.333333333   0.577350269   0.145933920
      27   0.333333333   0.577350269   0.291867841
      28   0.333333333   0.577350269  -0.437801761

     Saving dvscf to file. Distribute only q points, not irreducible represetations.

     Calculation of q =    0.0000000   0.0000000   0.0000000

     --                                                                         

     bravais-lattice index     =            4
     lattice parameter (alat)  =       5.8260  a.u.
     unit-cell volume          =     195.5871 (a.u.)^3
     number of atoms/cell      =            3
     number of atomic types    =            2
     kinetic-energy cut-off    =      40.0000  Ry
     charge density cut-off    =     160.0000  Ry
     convergence threshold     =      1.0E-14
     beta                      =       0.7000
     number of iterations used =            4
     Exchange-correlation= PZ
                           (   1   1   0   0   0   0   0)


     celldm(1)=    5.82603  celldm(2)=    0.00000  celldm(3)=    1.14207
     celldm(4)=    0.00000  celldm(5)=    0.00000  celldm(6)=    0.00000

     crystal axes: (cart. coord. in units of alat)
               a(1) = (  1.0000  0.0000  0.0000 )  
               a(2) = ( -0.5000  0.8660  0.0000 )  
               a(3) = (  0.0000  0.0000  1.1421 )  

     reciprocal axes: (cart. coord. in units 2 pi/alat)
               b(1) = (  1.0000  0.5774 -0.0000 )  
               b(2) = (  0.0000  1.1547  0.0000 )  
               b(3) = (  0.0000 -0.0000  0.8756 )  


     Atoms inside the unit cell: 

     Cartesian axes

     site n.  atom      mass           positions (alat units)
        1     Mg  24.3050   tau(    1) = (    0.00000    0.00000    0.00000  )
        2     B   10.8110   tau(    2) = (   -0.00000    0.57735    0.57103  )
        3     B   10.8110   tau(    3) = (    0.50000    0.28868    0.57103  )

     Computing dynamical matrix for 
                    q = (   0.0000000   0.0000000   0.0000000 )

     25 Sym.Ops. (with q -> -q+G )


     G cutoff =  137.5641  (   3328 G-vectors)     FFT grid: ( 24, 24, 27)

     number of k points=   133  Methfessel-Paxton smearing, width (Ry)=  0.0200

     PseudoPot. # 1 for Mg read from file:
     ../pp/Mg.pz-n-vbc.UPF
     MD5 check sum: 51ac066f8f4bf7da60c51ce0af5caf3d
     Pseudo is Norm-conserving + core correction, Zval =  2.0
     Generated by new atomic code, or converted to UPF format
     Using radial grid of  171 points,  2 beta functions with: 
                l(1) =   0
                l(2) =   1

     PseudoPot. # 2 for B  read from file:
     ../pp/B.pz-vbc.UPF
     MD5 check sum: b59596b5d63edeea6a2b3a0beace49c5
     Pseudo is Norm-conserving, Zval =  3.0
     Generated by new atomic code, or converted to UPF format
     Using radial grid of  157 points,  1 beta functions with: 
                l(1) =   0

     Mode symmetry, D_6h(6/mmm) point group:


     Atomic displacements:
     There are    6 irreducible representations

     Representation     1      1 modes -  To be done

     Representation     2      2 modes -  To be done

     Representation     3      1 modes -  To be done

     Representation     4      1 modes -  To be done

     Representation     5      2 modes -  To be done

     Representation     6      2 modes -  To be done



     Alpha used in Ewald sum =   1.7000
     PHONON       :      0.70s CPU      1.13s WALL



     Representation #   1 mode #   1

     Self-consistent Calculation

     Pert. #  1: Fermi energy shift (Ry) =     0.0000E+00     0.0000E+00

      iter #   1 total cpu time :     3.1 secs   av.it.:   4.1
      thresh= 1.000E-02 alpha_mix =  0.700 |ddv_scf|^2 =  1.367E-07

     Pert. #  1: Fermi energy shift (Ry) =     0.0000E+00     0.0000E+00

      iter #   2 total cpu time :     5.1 secs   av.it.:   7.7
      thresh= 3.697E-05 alpha_mix =  0.700 |ddv_scf|^2 =  1.415E-09

     Pert. #  1: Fermi energy shift (Ry) =     0.0000E+00     0.0000E+00

      iter #   3 total cpu time :     6.9 secs   av.it.:   7.3
      thresh= 3.761E-06 alpha_mix =  0.700 |ddv_scf|^2 =  6.079E-11

     Pert. #  1: Fermi energy shift (Ry) =     0.0000E+00     0.0000E+00

      iter #   4 total cpu time :     8.7 secs   av.it.:   6.4
      thresh= 7.797E-07 alpha_mix =  0.700 |ddv_scf|^2 =  5.569E-15

     End of self-consistent calculation

     Convergence has been achieved 


     Representation #   2 modes #   2   3

     Self-consistent Calculation

     Pert. #  1: Fermi energy shift (Ry) =    -1.6414E-18    -7.0902E-41
     Pert. #  2: Fermi energy shift (Ry) =     1.4456E-18     4.5918E-41

      iter #   1 total cpu time :    12.5 secs   av.it.:   4.9
      thresh= 1.000E-02 alpha_mix =  0.700 |ddv_scf|^2 =  6.454E-07

     Pert. #  1: Fermi energy shift (Ry) =    -3.1572E-19     2.0145E-41
     Pert. #  2: Fermi energy shift (Ry) =     1.1565E-18    -2.2959E-41

      iter #   2 total cpu time :    16.9 secs   av.it.:   8.7
      thresh= 8.034E-05 alpha_mix =  0.700 |ddv_scf|^2 =  1.459E-08

     Pert. #  1: Fermi energy shift (Ry) =    -1.7416E-19    -5.0363E-42
     Pert. #  2: Fermi energy shift (Ry) =    -4.3368E-19     5.7397E-42

      iter #   3 total cpu time :    20.8 secs   av.it.:   8.7
      thresh= 1.208E-05 alpha_mix =  0.700 |ddv_scf|^2 =  4.664E-11

     Pert. #  1: Fermi energy shift (Ry) =    -1.0415E-18    -5.0363E-42
     Pert. #  2: Fermi energy shift (Ry) =     4.3368E-19     5.7397E-42

      iter #   4 total cpu time :    24.7 secs   av.it.:   7.8
      thresh= 6.829E-07 alpha_mix =  0.700 |ddv_scf|^2 =  4.759E-15

     End of self-consistent calculation

     Convergence has been achieved 


     Representation #   3 mode #   4

     Self-consistent Calculation

     Pert. #  1: Fermi energy shift (Ry) =     0.0000E+00     0.0000E+00

      iter #   1 total cpu time :    27.1 secs   av.it.:   3.5
      thresh= 1.000E-02 alpha_mix =  0.700 |ddv_scf|^2 =  3.131E-07

     Pert. #  1: Fermi energy shift (Ry) =     0.0000E+00     0.0000E+00

      iter #   2 total cpu time :    29.0 secs   av.it.:   7.4
      thresh= 5.595E-05 alpha_mix =  0.700 |ddv_scf|^2 =  6.771E-08

     Pert. #  1: Fermi energy shift (Ry) =    -1.3786E-25     0.0000E+00

      iter #   3 total cpu time :    31.0 secs   av.it.:   7.0
      thresh= 2.602E-05 alpha_mix =  0.700 |ddv_scf|^2 =  7.453E-10

     Pert. #  1: Fermi energy shift (Ry) =     1.3786E-25     0.0000E+00

      iter #   4 total cpu time :    32.8 secs   av.it.:   6.8
      thresh= 2.730E-06 alpha_mix =  0.700 |ddv_scf|^2 =  1.048E-12

     Pert. #  1: Fermi energy shift (Ry) =    -2.0680E-25     0.0000E+00

      iter #   5 total cpu time :    34.6 secs   av.it.:   7.5
      thresh= 1.024E-07 alpha_mix =  0.700 |ddv_scf|^2 =  2.998E-14

     Pert. #  1: Fermi energy shift (Ry) =    -2.0680E-25     0.0000E+00

      iter #   6 total cpu time :    36.5 secs   av.it.:   7.2
      thresh= 1.731E-08 alpha_mix =  0.700 |ddv_scf|^2 =  4.846E-17

     End of self-consistent calculation

     Convergence has been achieved 


     Representation #   4 mode #   5

     Self-consistent Calculation

     Pert. #  1: Fermi energy shift (Ry) =     8.2718E-25     0.0000E+00

      iter #   1 total cpu time :    38.8 secs   av.it.:   4.8
      thresh= 1.000E-02 alpha_mix =  0.700 |ddv_scf|^2 =  1.062E-05

     Pert. #  1: Fermi energy shift (Ry) =     0.0000E+00     0.0000E+00

      iter #   2 total cpu time :    40.7 secs   av.it.:   7.4
      thresh= 3.259E-04 alpha_mix =  0.700 |ddv_scf|^2 =  1.973E-06

     Pert. #  1: Fermi energy shift (Ry) =     2.7573E-25     0.0000E+00

      iter #   3 total cpu time :    42.6 secs   av.it.:   7.1
      thresh= 1.405E-04 alpha_mix =  0.700 |ddv_scf|^2 =  2.535E-10

     Pert. #  1: Fermi energy shift (Ry) =     0.0000E+00     0.0000E+00

      iter #   4 total cpu time :    44.3 secs   av.it.:   6.6
      thresh= 1.592E-06 alpha_mix =  0.700 |ddv_scf|^2 =  2.187E-12

     Pert. #  1: Fermi energy shift (Ry) =    -1.3786E-25     0.0000E+00

      iter #   5 total cpu time :    46.2 secs   av.it.:   7.1
      thresh= 1.479E-07 alpha_mix =  0.700 |ddv_scf|^2 =  1.778E-15

     End of self-consistent calculation

     Convergence has been achieved 


     Representation #   5 modes #   6   7

     Self-consistent Calculation

     Pert. #  1: Fermi energy shift (Ry) =     5.6863E-27    -1.7672E-36
     Pert. #  2: Fermi energy shift (Ry) =    -1.7233E-26     4.5139E-36

      iter #   1 total cpu time :    50.1 secs   av.it.:   4.6
      thresh= 1.000E-02 alpha_mix =  0.700 |ddv_scf|^2 =  1.014E-07

     Pert. #  1: Fermi energy shift (Ry) =    -1.3062E-25     2.8804E-39
     Pert. #  2: Fermi energy shift (Ry) =     1.3786E-25     7.3468E-40

      iter #   2 total cpu time :    54.2 secs   av.it.:   8.6
      thresh= 3.184E-05 alpha_mix =  0.700 |ddv_scf|^2 =  3.377E-10

     Pert. #  1: Fermi energy shift (Ry) =    -1.2084E-25     8.4254E-40
     Pert. #  2: Fermi energy shift (Ry) =     1.0340E-25     1.8367E-40

      iter #   3 total cpu time :    57.9 secs   av.it.:   7.7
      thresh= 1.838E-06 alpha_mix =  0.700 |ddv_scf|^2 =  3.143E-11

     Pert. #  1: Fermi energy shift (Ry) =     1.7118E-26     9.5841E-41
     Pert. #  2: Fermi energy shift (Ry) =     1.7233E-25    -3.8265E-41

      iter #   4 total cpu time :    61.6 secs   av.it.:   7.3
      thresh= 5.606E-07 alpha_mix =  0.700 |ddv_scf|^2 =  4.911E-15

     End of self-consistent calculation

     Convergence has been achieved 


     Representation #   6 modes #   8   9

     Self-consistent Calculation

     Pert. #  1: Fermi energy shift (Ry) =     1.2732E-25     1.2539E-37
     Pert. #  2: Fermi energy shift (Ry) =    -6.8932E-26     1.0031E-36

      iter #   1 total cpu time :    65.1 secs   av.it.:   2.7
      thresh= 1.000E-02 alpha_mix =  0.700 |ddv_scf|^2 =  1.182E-08

     Pert. #  1: Fermi energy shift (Ry) =    -1.5823E-25     3.0612E-41
     Pert. #  2: Fermi energy shift (Ry) =    -1.7233E-26     0.0000E+00

      iter #   2 total cpu time :    69.1 secs   av.it.:   7.7
      thresh= 1.087E-05 alpha_mix =  0.700 |ddv_scf|^2 =  8.314E-10

     Pert. #  1: Fermi energy shift (Ry) =     4.8552E-26     1.8367E-40
     Pert. #  2: Fermi energy shift (Ry) =     1.0340E-25     0.0000E+00

      iter #   3 total cpu time :    73.1 secs   av.it.:   8.0
      thresh= 2.883E-06 alpha_mix =  0.700 |ddv_scf|^2 =  1.512E-12

     Pert. #  1: Fermi energy shift (Ry) =    -8.6139E-26    -4.5439E-42
     Pert. #  2: Fermi energy shift (Ry) =     6.8932E-26     6.2180E-42

      iter #   4 total cpu time :    77.3 secs   av.it.:   8.8
      thresh= 1.230E-07 alpha_mix =  0.700 |ddv_scf|^2 =  1.904E-13

     Pert. #  1: Fermi energy shift (Ry) =    -8.6116E-26     6.5768E-43
     Pert. #  2: Fermi energy shift (Ry) =     1.7233E-26     4.7831E-42

      iter #   5 total cpu time :    81.1 secs   av.it.:   7.9
      thresh= 4.364E-08 alpha_mix =  0.700 |ddv_scf|^2 =  4.601E-14

     Pert. #  1: Fermi energy shift (Ry) =    -1.2054E-25    -4.7831E-43
     Pert. #  2: Fermi energy shift (Ry) =    -5.1699E-26    -3.8265E-42

      iter #   6 total cpu time :    85.1 secs   av.it.:   8.5
      thresh= 2.145E-08 alpha_mix =  0.700 |ddv_scf|^2 =  4.043E-18

     End of self-consistent calculation

     Convergence has been achieved 

     Number of q in the star =    1
     List of q in the star:
          1   0.000000000   0.000000000   0.000000000

     Diagonalizing the dynamical matrix

     q = (    0.000000000   0.000000000   0.000000000 ) 

 **************************************************************************
     freq (    1) =      -0.505800 [THz] =     -16.871674 [cm-1]
     freq (    2) =       0.627762 [THz] =      20.939900 [cm-1]
     freq (    3) =       0.627762 [THz] =      20.939900 [cm-1]
     freq (    4) =       9.817751 [THz] =     327.484915 [cm-1]
     freq (    5) =       9.817751 [THz] =     327.484915 [cm-1]
     freq (    6) =      11.676761 [THz] =     389.494807 [cm-1]
     freq (    7) =      15.146129 [THz] =     505.220488 [cm-1]
     freq (    8) =      15.146129 [THz] =     505.220488 [cm-1]
     freq (    9) =      21.011296 [THz] =     700.861409 [cm-1]
 **************************************************************************

     Mode symmetry, D_6h(6/mmm) point group:

     freq (   1-   1) =        -16.9  [cm-1]   --> A_2u            I  
     freq (   2-   3) =         20.9  [cm-1]   --> E_1u            I  
     freq (   4-   5) =        327.5  [cm-1]   --> E_1u            I  
     freq (   6-   6) =        389.5  [cm-1]   --> A_2u            I  
     freq (   7-   8) =        505.2  [cm-1]   --> E_2g            R  
     freq (   9-   9) =        700.9  [cm-1]   --> B_1g               

     Calculation of q =    0.0000000   0.0000000   0.1459339

     Subspace diagonalization in iterative solution of the eigenvalue problem:
     a serial algorithm will be used


     Parallelization info
     --------------------
     sticks:   dense  smooth     PW     G-vecs:    dense   smooth      PW
     Min         189     189     60                 3328     3328     642
     Max         190     190     61                 3329     3329     645
     Sum         379     379    121                 6657     6657    1287


     Title: 
     --                                                                         


     bravais-lattice index     =            4
     lattice parameter (alat)  =       5.8260  a.u.
     unit-cell volume          =     195.5871 (a.u.)^3
     number of atoms/cell      =            3
     number of atomic types    =            2
     number of electrons       =         8.00
     number of Kohn-Sham states=            8
     kinetic-energy cutoff     =      40.0000  Ry
     charge density cutoff     =     160.0000  Ry
     Exchange-correlation= PZ
                           (   1   1   0   0   0   0   0)

     celldm(1)=   5.826025  celldm(2)=   0.000000  celldm(3)=   1.142069
     celldm(4)=   0.000000  celldm(5)=   0.000000  celldm(6)=   0.000000

     crystal axes: (cart. coord. in units of alat)
               a(1) = (   1.000000   0.000000   0.000000 )  
               a(2) = (  -0.500000   0.866025   0.000000 )  
               a(3) = (   0.000000   0.000000   1.142069 )  

     reciprocal axes: (cart. coord. in units 2 pi/alat)
               b(1) = (  1.000000  0.577350 -0.000000 )  
               b(2) = (  0.000000  1.154701  0.000000 )  
               b(3) = (  0.000000 -0.000000  0.875604 )  


     PseudoPot. # 1 for Mg read from file:
     ../pp/Mg.pz-n-vbc.UPF
     MD5 check sum: 51ac066f8f4bf7da60c51ce0af5caf3d
     Pseudo is Norm-conserving + core correction, Zval =  2.0
     Generated by new atomic code, or converted to UPF format
     Using radial grid of  171 points,  2 beta functions with: 
                l(1) =   0
                l(2) =   1

     PseudoPot. # 2 for B  read from file:
     ../pp/B.pz-vbc.UPF
     MD5 check sum: b59596b5d63edeea6a2b3a0beace49c5
     Pseudo is Norm-conserving, Zval =  3.0
     Generated by new atomic code, or converted to UPF format
     Using radial grid of  157 points,  1 beta functions with: 
                l(1) =   0

     atomic species   valence    mass     pseudopotential
        Mg             2.00    24.30500     Mg( 1.00)
        B              3.00    10.81100     B ( 1.00)

     24 Sym. Ops., with inversion, found



   Cartesian axes

     site n.     atom                  positions (alat units)
         1           Mg  tau(   1) = (   0.0000000   0.0000000   0.0000000  )
         2           B   tau(   2) = (  -0.0000000   0.5773503   0.5710347  )
         3           B   tau(   3) = (   0.5000000   0.2886751   0.5710347  )

     number of k points=   456  Methfessel-Paxton smearing, width (Ry)=  0.0200

     Number of k-points >= 100: set verbosity='high' to print them.

     Dense  grid:     6657 G-vectors     FFT dimensions: (  24,  24,  27)

     Estimated max dynamical RAM per process >       1.84 MB

     Estimated total dynamical RAM >       3.68 MB

     The potential is recalculated from file :
     ./_ph0/MgB2.q_2/MgB2.save/charge-density

     Starting wfcs are   12 atomic wfcs

     Band Structure Calculation
     Davidson diagonalization with overlap

     ethr =  1.25E-10,  avg # of iterations = 17.7

     total cpu time spent up to now is       18.1 secs

     End of band structure calculation

     Number of k-points >= 100: set verbosity='high' to print the bands.

     the Fermi energy is     7.4185 ev

     Writing output data file ./_ph0/MgB2.q_2/MgB2.save/

     --                                                                         

     bravais-lattice index     =            4
     lattice parameter (alat)  =       5.8260  a.u.
     unit-cell volume          =     195.5871 (a.u.)^3
     number of atoms/cell      =            3
     number of atomic types    =            2
     kinetic-energy cut-off    =      40.0000  Ry
     charge density cut-off    =     160.0000  Ry
     convergence threshold     =      1.0E-14
     beta                      =       0.7000
     number of iterations used =            4
     Exchange-correlation= PZ
                           (   1   1   0   0   0   0   0)


     celldm(1)=    5.82603  celldm(2)=    0.00000  celldm(3)=    1.14207
     celldm(4)=    0.00000  celldm(5)=    0.00000  celldm(6)=    0.00000

     crystal axes: (cart. coord. in units of alat)
               a(1) = (  1.0000  0.0000  0.0000 )  
               a(2) = ( -0.5000  0.8660  0.0000 )  
               a(3) = (  0.0000  0.0000  1.1421 )  

     reciprocal axes: (cart. coord. in units 2 pi/alat)
               b(1) = (  1.0000  0.5774 -0.0000 )  
               b(2) = (  0.0000  1.1547  0.0000 )  
               b(3) = (  0.0000 -0.0000  0.8756 )  


     Atoms inside the unit cell: 

     Cartesian axes

     site n.  atom      mass           positions (alat units)
        1     Mg  24.3050   tau(    1) = (    0.00000    0.00000    0.00000  )
        2     B   10.8110   tau(    2) = (   -0.00000    0.57735    0.57103  )
        3     B   10.8110   tau(    3) = (    0.50000    0.28868    0.57103  )

     Computing dynamical matrix for 
                    q = (   0.0000000   0.0000000   0.1459339 )

     12 Sym.Ops. (no q -> -q+G )


     G cutoff =  137.5641  (   3328 G-vectors)     FFT grid: ( 24, 24, 27)

     number of k points=   456  Methfessel-Paxton smearing, width (Ry)=  0.0200

     PseudoPot. # 1 for Mg read from file:
     ../pp/Mg.pz-n-vbc.UPF
     MD5 check sum: 51ac066f8f4bf7da60c51ce0af5caf3d
     Pseudo is Norm-conserving + core correction, Zval =  2.0
     Generated by new atomic code, or converted to UPF format
     Using radial grid of  171 points,  2 beta functions with: 
                l(1) =   0
                l(2) =   1

     PseudoPot. # 2 for B  read from file:
     ../pp/B.pz-vbc.UPF
     MD5 check sum: b59596b5d63edeea6a2b3a0beace49c5
     Pseudo is Norm-conserving, Zval =  3.0
     Generated by new atomic code, or converted to UPF format
     Using radial grid of  157 points,  1 beta functions with: 
                l(1) =   0

     Mode symmetry, C_6v (6mm)  point group:


     Atomic displacements:
     There are    6 irreducible representations

     Representation     1      1 modes -  To be done

     Representation     2      1 modes -  To be done

     Representation     3      1 modes -  To be done

     Representation     4      2 modes -  To be done

     Representation     5      2 modes -  To be done

     Representation     6      2 modes -  To be done



     Alpha used in Ewald sum =   1.7000
     PHONON       :   1m37.37s CPU   1m43.78s WALL



     Representation #   1 mode #   1

     Self-consistent Calculation

      iter #   1 total cpu time :   107.4 secs   av.it.:   4.5
      thresh= 1.000E-02 alpha_mix =  0.700 |ddv_scf|^2 =  9.917E-02

      iter #   2 total cpu time :   110.9 secs   av.it.:   7.7
      thresh= 1.000E-02 alpha_mix =  0.700 |ddv_scf|^2 =  1.217E+02

      iter #   3 total cpu time :   114.3 secs   av.it.:   7.7
      thresh= 1.000E-02 alpha_mix =  0.700 |ddv_scf|^2 =  9.314E-04

      iter #   4 total cpu time :   116.9 secs   av.it.:   4.6
      thresh= 3.052E-03 alpha_mix =  0.700 |ddv_scf|^2 =  7.371E-05

      iter #   5 total cpu time :   119.8 secs   av.it.:   5.1
      thresh= 8.585E-04 alpha_mix =  0.700 |ddv_scf|^2 =  4.723E-07

      iter #   6 total cpu time :   122.5 secs   av.it.:   4.9
      thresh= 6.872E-05 alpha_mix =  0.700 |ddv_scf|^2 =  3.333E-09

      iter #   7 total cpu time :   125.2 secs   av.it.:   5.2
      thresh= 5.774E-06 alpha_mix =  0.700 |ddv_scf|^2 =  4.419E-10

      iter #   8 total cpu time :   127.8 secs   av.it.:   4.8
      thresh= 2.102E-06 alpha_mix =  0.700 |ddv_scf|^2 =  5.172E-12

      iter #   9 total cpu time :   130.5 secs   av.it.:   5.1
      thresh= 2.274E-07 alpha_mix =  0.700 |ddv_scf|^2 =  6.535E-12

      iter #  10 total cpu time :   132.7 secs   av.it.:   3.1
      thresh= 2.556E-07 alpha_mix =  0.700 |ddv_scf|^2 =  6.955E-14

      iter #  11 total cpu time :   135.6 secs   av.it.:   5.0
      thresh= 2.637E-08 alpha_mix =  0.700 |ddv_scf|^2 =  1.759E-16

     End of self-consistent calculation

     Convergence has been achieved 


     Representation #   2 mode #   2

     Self-consistent Calculation

      iter #   1 total cpu time :   139.7 secs   av.it.:   5.9
      thresh= 1.000E-02 alpha_mix =  0.700 |ddv_scf|^2 =  4.342E-01

      iter #   2 total cpu time :   143.5 secs   av.it.:   8.4
      thresh= 1.000E-02 alpha_mix =  0.700 |ddv_scf|^2 =  5.300E+02

      iter #   3 total cpu time :   147.1 secs   av.it.:   8.3
      thresh= 1.000E-02 alpha_mix =  0.700 |ddv_scf|^2 =  1.475E-02

      iter #   4 total cpu time :   149.7 secs   av.it.:   5.0
      thresh= 1.000E-02 alpha_mix =  0.700 |ddv_scf|^2 =  2.210E-03

      iter #   5 total cpu time :   152.4 secs   av.it.:   5.1
      thresh= 4.701E-03 alpha_mix =  0.700 |ddv_scf|^2 =  1.564E-05

      iter #   6 total cpu time :   155.0 secs   av.it.:   4.8
      thresh= 3.955E-04 alpha_mix =  0.700 |ddv_scf|^2 =  2.550E-07

      iter #   7 total cpu time :   157.5 secs   av.it.:   4.5
      thresh= 5.050E-05 alpha_mix =  0.700 |ddv_scf|^2 =  1.676E-09

      iter #   8 total cpu time :   160.1 secs   av.it.:   5.0
      thresh= 4.094E-06 alpha_mix =  0.700 |ddv_scf|^2 =  7.825E-12

      iter #   9 total cpu time :   162.6 secs   av.it.:   5.3
      thresh= 2.797E-07 alpha_mix =  0.700 |ddv_scf|^2 =  2.339E-11

      iter #  10 total cpu time :   164.7 secs   av.it.:   3.1
      thresh= 4.836E-07 alpha_mix =  0.700 |ddv_scf|^2 =  9.973E-14

      iter #  11 total cpu time :   167.8 secs   av.it.:   5.6
      thresh= 3.158E-08 alpha_mix =  0.700 |ddv_scf|^2 =  9.344E-15

     End of self-consistent calculation

     Convergence has been achieved 


     Representation #   3 mode #   3

     Self-consistent Calculation

      iter #   1 total cpu time :   171.4 secs   av.it.:   4.2
      thresh= 1.000E-02 alpha_mix =  0.700 |ddv_scf|^2 =  1.616E-07

      iter #   2 total cpu time :   175.2 secs   av.it.:   7.9
      thresh= 4.020E-05 alpha_mix =  0.700 |ddv_scf|^2 =  1.576E-09

      iter #   3 total cpu time :   179.0 secs   av.it.:   8.1
      thresh= 3.970E-06 alpha_mix =  0.700 |ddv_scf|^2 =  1.950E-10

      iter #   4 total cpu time :   182.7 secs   av.it.:   7.9
      thresh= 1.396E-06 alpha_mix =  0.700 |ddv_scf|^2 =  2.723E-11

      iter #   5 total cpu time :   186.3 secs   av.it.:   7.7
      thresh= 5.218E-07 alpha_mix =  0.700 |ddv_scf|^2 =  1.988E-15

     End of self-consistent calculation

     Convergence has been achieved 


     Representation #   4 modes #   4   5

     Self-consistent Calculation

      iter #   1 total cpu time :   192.3 secs   av.it.:   4.8
      thresh= 1.000E-02 alpha_mix =  0.700 |ddv_scf|^2 =  9.774E-08

      iter #   2 total cpu time :   199.5 secs   av.it.:   9.0
      thresh= 3.126E-05 alpha_mix =  0.700 |ddv_scf|^2 =  3.309E-10

      iter #   3 total cpu time :   206.1 secs   av.it.:   7.9
      thresh= 1.819E-06 alpha_mix =  0.700 |ddv_scf|^2 =  3.101E-11

      iter #   4 total cpu time :   212.3 secs   av.it.:   7.8
      thresh= 5.569E-07 alpha_mix =  0.700 |ddv_scf|^2 =  6.142E-15

     End of self-consistent calculation

     Convergence has been achieved 


     Representation #   5 modes #   6   7

     Self-consistent Calculation

      iter #   1 total cpu time :   217.3 secs   av.it.:   2.8
      thresh= 1.000E-02 alpha_mix =  0.700 |ddv_scf|^2 =  1.170E-08

      iter #   2 total cpu time :   224.3 secs   av.it.:   8.2
      thresh= 1.082E-05 alpha_mix =  0.700 |ddv_scf|^2 =  8.046E-10

      iter #   3 total cpu time :   231.0 secs   av.it.:   8.3
      thresh= 2.837E-06 alpha_mix =  0.700 |ddv_scf|^2 =  1.708E-12

      iter #   4 total cpu time :   238.2 secs   av.it.:   9.1
      thresh= 1.307E-07 alpha_mix =  0.700 |ddv_scf|^2 =  8.680E-14

      iter #   5 total cpu time :   245.4 secs   av.it.:   8.6
      thresh= 2.946E-08 alpha_mix =  0.700 |ddv_scf|^2 =  5.769E-15

     End of self-consistent calculation

     Convergence has been achieved 


     Representation #   6 modes #   8   9

     Self-consistent Calculation

      iter #   1 total cpu time :   251.5 secs   av.it.:   5.1
      thresh= 1.000E-02 alpha_mix =  0.700 |ddv_scf|^2 =  6.505E-07

      iter #   2 total cpu time :   258.8 secs   av.it.:   9.1
      thresh= 8.065E-05 alpha_mix =  0.700 |ddv_scf|^2 =  1.556E-08

      iter #   3 total cpu time :   265.6 secs   av.it.:   9.0
      thresh= 1.247E-05 alpha_mix =  0.700 |ddv_scf|^2 =  4.722E-11

      iter #   4 total cpu time :   272.2 secs   av.it.:   8.2
      thresh= 6.872E-07 alpha_mix =  0.700 |ddv_scf|^2 =  7.789E-15

     End of self-consistent calculation

     Convergence has been achieved 

     Number of q in the star =    2
     List of q in the star:
          1   0.000000000   0.000000000   0.145933920
          2   0.000000000   0.000000000  -0.145933920

     Diagonalizing the dynamical matrix

     q = (    0.000000000   0.000000000   0.145933920 ) 

 **************************************************************************
     freq (    1) =       2.520364 [THz] =      84.070301 [cm-1]
     freq (    2) =       2.520364 [THz] =      84.070301 [cm-1]
     freq (    3) =       4.331657 [THz] =     144.488514 [cm-1]
     freq (    4) =       9.452322 [THz] =     315.295511 [cm-1]
     freq (    5) =       9.452322 [THz] =     315.295511 [cm-1]
     freq (    6) =      11.736832 [THz] =     391.498565 [cm-1]
     freq (    7) =      14.096076 [THz] =     470.194483 [cm-1]
     freq (    8) =      14.096076 [THz] =     470.194483 [cm-1]
     freq (    9) =      20.752966 [THz] =     692.244431 [cm-1]
 **************************************************************************

     Mode symmetry, C_6v (6mm)  point group:

     freq (   1-   2) =         84.1  [cm-1]   --> E_1                
     freq (   3-   3) =        144.5  [cm-1]   --> A_1                
     freq (   4-   5) =        315.3  [cm-1]   --> E_1                
     freq (   6-   6) =        391.5  [cm-1]   --> A_1                
     freq (   7-   8) =        470.2  [cm-1]   --> E_2                
     freq (   9-   9) =        692.2  [cm-1]   --> B_1                

     Calculation of q =    0.0000000   0.0000000   0.2918678

     Parallelization info
     --------------------
     sticks:   dense  smooth     PW     G-vecs:    dense   smooth      PW
     Min         189     189     60                 3328     3328     648
     Max         190     190     61                 3329     3329     651
     Sum         379     379    121                 6657     6657    1299


     Title: 
     --                                                                         


     bravais-lattice index     =            4
     lattice parameter (alat)  =       5.8260  a.u.
     unit-cell volume          =     195.5871 (a.u.)^3
     number of atoms/cell      =            3
     number of atomic types    =            2
     number of electrons       =         8.00
     number of Kohn-Sham states=            8
     kinetic-energy cutoff     =      40.0000  Ry
     charge density cutoff     =     160.0000  Ry
     Exchange-correlation= PZ
                           (   1   1   0   0   0   0   0)

     celldm(1)=   5.826025  celldm(2)=   0.000000  celldm(3)=   1.142069
     celldm(4)=   0.000000  celldm(5)=   0.000000  celldm(6)=   0.000000

     crystal axes: (cart. coord. in units of alat)
               a(1) = (   1.000000   0.000000   0.000000 )  
               a(2) = (  -0.500000   0.866025   0.000000 )  
               a(3) = (   0.000000   0.000000   1.142069 )  

     reciprocal axes: (cart. coord. in units 2 pi/alat)
               b(1) = (  1.000000  0.577350 -0.000000 )  
               b(2) = (  0.000000  1.154701  0.000000 )  
               b(3) = (  0.000000 -0.000000  0.875604 )  


     PseudoPot. # 1 for Mg read from file:
     ../pp/Mg.pz-n-vbc.UPF
     MD5 check sum: 51ac066f8f4bf7da60c51ce0af5caf3d
     Pseudo is Norm-conserving + core correction, Zval =  2.0
     Generated by new atomic code, or converted to UPF format
     Using radial grid of  171 points,  2 beta functions with: 
                l(1) =   0
                l(2) =   1

     PseudoPot. # 2 for B  read from file:
     ../pp/B.pz-vbc.UPF
     MD5 check sum: b59596b5d63edeea6a2b3a0beace49c5
     Pseudo is Norm-conserving, Zval =  3.0
     Generated by new atomic code, or converted to UPF format
     Using radial grid of  157 points,  1 beta functions with: 
                l(1) =   0

     atomic species   valence    mass     pseudopotential
        Mg             2.00    24.30500     Mg( 1.00)
        B              3.00    10.81100     B ( 1.00)

     24 Sym. Ops., with inversion, found



   Cartesian axes

     site n.     atom                  positions (alat units)
         1           Mg  tau(   1) = (   0.0000000   0.0000000   0.0000000  )
         2           B   tau(   2) = (  -0.0000000   0.5773503   0.5710347  )
         3           B   tau(   3) = (   0.5000000   0.2886751   0.5710347  )

     number of k points=   456  Methfessel-Paxton smearing, width (Ry)=  0.0200

     Number of k-points >= 100: set verbosity='high' to print them.

     Dense  grid:     6657 G-vectors     FFT dimensions: (  24,  24,  27)

     Estimated max dynamical RAM per process >       1.84 MB

     Estimated total dynamical RAM >       3.69 MB

     The potential is recalculated from file :
     ./_ph0/MgB2.q_3/MgB2.save/charge-density

     Starting wfcs are   12 atomic wfcs

     Band Structure Calculation
     Davidson diagonalization with overlap

     ethr =  1.25E-10,  avg # of iterations = 17.7

     total cpu time spent up to now is       37.8 secs

     End of band structure calculation

     Number of k-points >= 100: set verbosity='high' to print the bands.

     the Fermi energy is     7.4185 ev

     Writing output data file ./_ph0/MgB2.q_3/MgB2.save/

     --                                                                         

     bravais-lattice index     =            4
     lattice parameter (alat)  =       5.8260  a.u.
     unit-cell volume          =     195.5871 (a.u.)^3
     number of atoms/cell      =            3
     number of atomic types    =            2
     kinetic-energy cut-off    =      40.0000  Ry
     charge density cut-off    =     160.0000  Ry
     convergence threshold     =      1.0E-14
     beta                      =       0.7000
     number of iterations used =            4
     Exchange-correlation= PZ
                           (   1   1   0   0   0   0   0)


     celldm(1)=    5.82603  celldm(2)=    0.00000  celldm(3)=    1.14207
     celldm(4)=    0.00000  celldm(5)=    0.00000  celldm(6)=    0.00000

     crystal axes: (cart. coord. in units of alat)
               a(1) = (  1.0000  0.0000  0.0000 )  
               a(2) = ( -0.5000  0.8660  0.0000 )  
               a(3) = (  0.0000  0.0000  1.1421 )  

     reciprocal axes: (cart. coord. in units 2 pi/alat)
               b(1) = (  1.0000  0.5774 -0.0000 )  
               b(2) = (  0.0000  1.1547  0.0000 )  
               b(3) = (  0.0000 -0.0000  0.8756 )  


     Atoms inside the unit cell: 

     Cartesian axes

     site n.  atom      mass           positions (alat units)
        1     Mg  24.3050   tau(    1) = (    0.00000    0.00000    0.00000  )
        2     B   10.8110   tau(    2) = (   -0.00000    0.57735    0.57103  )
        3     B   10.8110   tau(    3) = (    0.50000    0.28868    0.57103  )

     Computing dynamical matrix for 
                    q = (   0.0000000   0.0000000   0.2918678 )

     12 Sym.Ops. (no q -> -q+G )


     G cutoff =  137.5641  (   3328 G-vectors)     FFT grid: ( 24, 24, 27)

     number of k points=   456  Methfessel-Paxton smearing, width (Ry)=  0.0200

     PseudoPot. # 1 for Mg read from file:
     ../pp/Mg.pz-n-vbc.UPF
     MD5 check sum: 51ac066f8f4bf7da60c51ce0af5caf3d
     Pseudo is Norm-conserving + core correction, Zval =  2.0
     Generated by new atomic code, or converted to UPF format
     Using radial grid of  171 points,  2 beta functions with: 
                l(1) =   0
                l(2) =   1

     PseudoPot. # 2 for B  read from file:
     ../pp/B.pz-vbc.UPF
     MD5 check sum: b59596b5d63edeea6a2b3a0beace49c5
     Pseudo is Norm-conserving, Zval =  3.0
     Generated by new atomic code, or converted to UPF format
     Using radial grid of  157 points,  1 beta functions with: 
                l(1) =   0

     Mode symmetry, C_6v (6mm)  point group:


     Atomic displacements:
     There are    6 irreducible representations

     Representation     1      1 modes -  To be done

     Representation     2      1 modes -  To be done

     Representation     3      1 modes -  To be done

     Representation     4      2 modes -  To be done

     Representation     5      2 modes -  To be done

     Representation     6      2 modes -  To be done



     Alpha used in Ewald sum =   1.7000
     PHONON       :   4m34.33s CPU   4m52.48s WALL



     Representation #   1 mode #   1

     Self-consistent Calculation

      iter #   1 total cpu time :   296.1 secs   av.it.:   4.4
      thresh= 1.000E-02 alpha_mix =  0.700 |ddv_scf|^2 =  1.287E-03

      iter #   2 total cpu time :   299.6 secs   av.it.:   7.2
      thresh= 3.587E-03 alpha_mix =  0.700 |ddv_scf|^2 =  8.495E-02

      iter #   3 total cpu time :   302.5 secs   av.it.:   6.2
      thresh= 1.000E-02 alpha_mix =  0.700 |ddv_scf|^2 =  8.864E-06

      iter #   4 total cpu time :   305.8 secs   av.it.:   7.4
      thresh= 2.977E-04 alpha_mix =  0.700 |ddv_scf|^2 =  8.509E-06

      iter #   5 total cpu time :   308.8 secs   av.it.:   6.6
      thresh= 2.917E-04 alpha_mix =  0.700 |ddv_scf|^2 =  1.838E-09

      iter #   6 total cpu time :   311.9 secs   av.it.:   6.6
      thresh= 4.287E-06 alpha_mix =  0.700 |ddv_scf|^2 =  1.721E-11

      iter #   7 total cpu time :   315.0 secs   av.it.:   6.8
      thresh= 4.149E-07 alpha_mix =  0.700 |ddv_scf|^2 =  9.481E-13

      iter #   8 total cpu time :   317.9 secs   av.it.:   5.8
      thresh= 9.737E-08 alpha_mix =  0.700 |ddv_scf|^2 =  7.954E-16

     End of self-consistent calculation

     Convergence has been achieved 


     Representation #   2 mode #   2

     Self-consistent Calculation

      iter #   1 total cpu time :   321.7 secs   av.it.:   5.7
      thresh= 1.000E-02 alpha_mix =  0.700 |ddv_scf|^2 =  5.232E-03

      iter #   2 total cpu time :   325.4 secs   av.it.:   7.2
      thresh= 7.233E-03 alpha_mix =  0.700 |ddv_scf|^2 =  3.086E-01

      iter #   3 total cpu time :   328.9 secs   av.it.:   6.8
      thresh= 1.000E-02 alpha_mix =  0.700 |ddv_scf|^2 =  4.243E-04

      iter #   4 total cpu time :   332.3 secs   av.it.:   6.8
      thresh= 2.060E-03 alpha_mix =  0.700 |ddv_scf|^2 =  2.544E-05

      iter #   5 total cpu time :   335.7 secs   av.it.:   6.5
      thresh= 5.044E-04 alpha_mix =  0.700 |ddv_scf|^2 =  5.937E-09

      iter #   6 total cpu time :   339.4 secs   av.it.:   6.2
      thresh= 7.705E-06 alpha_mix =  0.700 |ddv_scf|^2 =  3.176E-11

      iter #   7 total cpu time :   342.7 secs   av.it.:   6.6
      thresh= 5.635E-07 alpha_mix =  0.700 |ddv_scf|^2 =  4.846E-12

      iter #   8 total cpu time :   345.7 secs   av.it.:   5.7
      thresh= 2.201E-07 alpha_mix =  0.700 |ddv_scf|^2 =  6.179E-15

     End of self-consistent calculation

     Convergence has been achieved 


     Representation #   3 mode #   3

     Self-consistent Calculation

      iter #   1 total cpu time :   349.3 secs   av.it.:   4.4
      thresh= 1.000E-02 alpha_mix =  0.700 |ddv_scf|^2 =  2.128E-07

      iter #   2 total cpu time :   353.3 secs   av.it.:   7.8
      thresh= 4.613E-05 alpha_mix =  0.700 |ddv_scf|^2 =  1.231E-09

      iter #   3 total cpu time :   358.2 secs   av.it.:   7.2
      thresh= 3.509E-06 alpha_mix =  0.700 |ddv_scf|^2 =  7.314E-11

      iter #   4 total cpu time :   361.8 secs   av.it.:   6.7
      thresh= 8.552E-07 alpha_mix =  0.700 |ddv_scf|^2 =  1.869E-14

      iter #   5 total cpu time :   365.5 secs   av.it.:   8.1
      thresh= 1.367E-08 alpha_mix =  0.700 |ddv_scf|^2 =  2.568E-15

     End of self-consistent calculation

     Convergence has been achieved 


     Representation #   4 modes #   4   5

     Self-consistent Calculation

      iter #   1 total cpu time :   371.3 secs   av.it.:   4.8
      thresh= 1.000E-02 alpha_mix =  0.700 |ddv_scf|^2 =  9.148E-08

      iter #   2 total cpu time :   378.4 secs   av.it.:   9.0
      thresh= 3.025E-05 alpha_mix =  0.700 |ddv_scf|^2 =  3.240E-10

      iter #   3 total cpu time :   384.8 secs   av.it.:   7.8
      thresh= 1.800E-06 alpha_mix =  0.700 |ddv_scf|^2 =  3.027E-11

      iter #   4 total cpu time :   391.4 secs   av.it.:   7.9
      thresh= 5.502E-07 alpha_mix =  0.700 |ddv_scf|^2 =  6.697E-15

     End of self-consistent calculation

     Convergence has been achieved 


     Representation #   5 modes #   6   7

     Self-consistent Calculation

      iter #   1 total cpu time :   397.1 secs   av.it.:   2.8
      thresh= 1.000E-02 alpha_mix =  0.700 |ddv_scf|^2 =  1.144E-08

      iter #   2 total cpu time :   404.3 secs   av.it.:   8.2
      thresh= 1.070E-05 alpha_mix =  0.700 |ddv_scf|^2 =  7.556E-10

      iter #   3 total cpu time :   411.1 secs   av.it.:   8.2
      thresh= 2.749E-06 alpha_mix =  0.700 |ddv_scf|^2 =  2.093E-12

      iter #   4 total cpu time :   418.2 secs   av.it.:   8.8
      thresh= 1.447E-07 alpha_mix =  0.700 |ddv_scf|^2 =  3.571E-14

      iter #   5 total cpu time :   424.9 secs   av.it.:   8.5
      thresh= 1.890E-08 alpha_mix =  0.700 |ddv_scf|^2 =  2.033E-15

     End of self-consistent calculation

     Convergence has been achieved 


     Representation #   6 modes #   8   9

     Self-consistent Calculation

      iter #   1 total cpu time :   431.9 secs   av.it.:   5.2
      thresh= 1.000E-02 alpha_mix =  0.700 |ddv_scf|^2 =  6.274E-07

      iter #   2 total cpu time :   439.5 secs   av.it.:   9.2
      thresh= 7.921E-05 alpha_mix =  0.700 |ddv_scf|^2 =  1.433E-08

      iter #   3 total cpu time :   446.8 secs   av.it.:   9.1
      thresh= 1.197E-05 alpha_mix =  0.700 |ddv_scf|^2 =  4.700E-11

      iter #   4 total cpu time :   453.5 secs   av.it.:   8.3
      thresh= 6.856E-07 alpha_mix =  0.700 |ddv_scf|^2 =  8.831E-15

     End of self-consistent calculation

     Convergence has been achieved 

     Number of q in the star =    2
     List of q in the star:
          1   0.000000000   0.000000000   0.291867841
          2   0.000000000   0.000000000  -0.291867841

     Diagonalizing the dynamical matrix

     q = (    0.000000000   0.000000000   0.291867841 ) 

 **************************************************************************
     freq (    1) =       4.593478 [THz] =     153.221932 [cm-1]
     freq (    2) =       4.593478 [THz] =     153.221932 [cm-1]
     freq (    3) =       7.618869 [THz] =     254.138113 [cm-1]
     freq (    4) =       8.244294 [THz] =     275.000034 [cm-1]
     freq (    5) =       8.244294 [THz] =     275.000034 [cm-1]
     freq (    6) =      11.847067 [THz] =     395.175622 [cm-1]
     freq (    7) =      13.005857 [THz] =     433.828691 [cm-1]
     freq (    8) =      13.005857 [THz] =     433.828691 [cm-1]
     freq (    9) =      19.777205 [THz] =     659.696549 [cm-1]
 **************************************************************************

     Mode symmetry, C_6v (6mm)  point group:

     freq (   1-   2) =        153.2  [cm-1]   --> E_1                
     freq (   3-   3) =        254.1  [cm-1]   --> A_1                
     freq (   4-   5) =        275.0  [cm-1]   --> E_1                
     freq (   6-   6) =        395.2  [cm-1]   --> A_1                
     freq (   7-   8) =        433.8  [cm-1]   --> E_2                
     freq (   9-   9) =        659.7  [cm-1]   --> B_1                

     Calculation of q =    0.0000000   0.0000000  -0.4378018

     Parallelization info
     --------------------
     sticks:   dense  smooth     PW     G-vecs:    dense   smooth      PW
     Min         189     189     61                 3328     3328     694
     Max         190     190     66                 3329     3329     695
     Sum         379     379    127                 6657     6657    1389


     Title: 
     --                                                                         


     bravais-lattice index     =            4
     lattice parameter (alat)  =       5.8260  a.u.
     unit-cell volume          =     195.5871 (a.u.)^3
     number of atoms/cell      =            3
     number of atomic types    =            2
     number of electrons       =         8.00
     number of Kohn-Sham states=            8
     kinetic-energy cutoff     =      40.0000  Ry
     charge density cutoff     =     160.0000  Ry
     Exchange-correlation= PZ
                           (   1   1   0   0   0   0   0)

     celldm(1)=   5.826025  celldm(2)=   0.000000  celldm(3)=   1.142069
     celldm(4)=   0.000000  celldm(5)=   0.000000  celldm(6)=   0.000000

     crystal axes: (cart. coord. in units of alat)
               a(1) = (   1.000000   0.000000   0.000000 )  
               a(2) = (  -0.500000   0.866025   0.000000 )  
               a(3) = (   0.000000   0.000000   1.142069 )  

     reciprocal axes: (cart. coord. in units 2 pi/alat)
               b(1) = (  1.000000  0.577350 -0.000000 )  
               b(2) = (  0.000000  1.154701  0.000000 )  
               b(3) = (  0.000000 -0.000000  0.875604 )  


     PseudoPot. # 1 for Mg read from file:
     ../pp/Mg.pz-n-vbc.UPF
     MD5 check sum: 51ac066f8f4bf7da60c51ce0af5caf3d
     Pseudo is Norm-conserving + core correction, Zval =  2.0
     Generated by new atomic code, or converted to UPF format
     Using radial grid of  171 points,  2 beta functions with: 
                l(1) =   0
                l(2) =   1

     PseudoPot. # 2 for B  read from file:
     ../pp/B.pz-vbc.UPF
     MD5 check sum: b59596b5d63edeea6a2b3a0beace49c5
     Pseudo is Norm-conserving, Zval =  3.0
     Generated by new atomic code, or converted to UPF format
     Using radial grid of  157 points,  1 beta functions with: 
                l(1) =   0

     atomic species   valence    mass     pseudopotential
        Mg             2.00    24.30500     Mg( 1.00)
        B              3.00    10.81100     B ( 1.00)

     24 Sym. Ops., with inversion, found



   Cartesian axes

     site n.     atom                  positions (alat units)
         1           Mg  tau(   1) = (   0.0000000   0.0000000   0.0000000  )
         2           B   tau(   2) = (  -0.0000000   0.5773503   0.5710347  )
         3           B   tau(   3) = (   0.5000000   0.2886751   0.5710347  )

     number of k points=   266  Methfessel-Paxton smearing, width (Ry)=  0.0200

     Number of k-points >= 100: set verbosity='high' to print them.

     Dense  grid:     6657 G-vectors     FFT dimensions: (  24,  24,  27)

     Estimated max dynamical RAM per process >       1.85 MB

     Estimated total dynamical RAM >       3.69 MB

     The potential is recalculated from file :
     ./_ph0/MgB2.q_4/MgB2.save/charge-density

     Starting wfcs are   12 atomic wfcs

     Band Structure Calculation
     Davidson diagonalization with overlap

     ethr =  1.25E-10,  avg # of iterations = 17.4

     total cpu time spent up to now is       49.8 secs

     End of band structure calculation

     Number of k-points >= 100: set verbosity='high' to print the bands.

     the Fermi energy is     7.4185 ev

     Writing output data file ./_ph0/MgB2.q_4/MgB2.save/

     --                                                                         

     bravais-lattice index     =            4
     lattice parameter (alat)  =       5.8260  a.u.
     unit-cell volume          =     195.5871 (a.u.)^3
     number of atoms/cell      =            3
     number of atomic types    =            2
     kinetic-energy cut-off    =      40.0000  Ry
     charge density cut-off    =     160.0000  Ry
     convergence threshold     =      1.0E-14
     beta                      =       0.7000
     number of iterations used =            4
     Exchange-correlation= PZ
                           (   1   1   0   0   0   0   0)


     celldm(1)=    5.82603  celldm(2)=    0.00000  celldm(3)=    1.14207
     celldm(4)=    0.00000  celldm(5)=    0.00000  celldm(6)=    0.00000

     crystal axes: (cart. coord. in units of alat)
               a(1) = (  1.0000  0.0000  0.0000 )  
               a(2) = ( -0.5000  0.8660  0.0000 )  
               a(3) = (  0.0000  0.0000  1.1421 )  

     reciprocal axes: (cart. coord. in units 2 pi/alat)
               b(1) = (  1.0000  0.5774 -0.0000 )  
               b(2) = (  0.0000  1.1547  0.0000 )  
               b(3) = (  0.0000 -0.0000  0.8756 )  


     Atoms inside the unit cell: 

     Cartesian axes

     site n.  atom      mass           positions (alat units)
        1     Mg  24.3050   tau(    1) = (    0.00000    0.00000    0.00000  )
        2     B   10.8110   tau(    2) = (   -0.00000    0.57735    0.57103  )
        3     B   10.8110   tau(    3) = (    0.50000    0.28868    0.57103  )

     Computing dynamical matrix for 
                    q = (   0.0000000   0.0000000  -0.4378018 )

     25 Sym.Ops. (with q -> -q+G )


     G cutoff =  137.5641  (   3328 G-vectors)     FFT grid: ( 24, 24, 27)

     number of k points=   266  Methfessel-Paxton smearing, width (Ry)=  0.0200

     PseudoPot. # 1 for Mg read from file:
     ../pp/Mg.pz-n-vbc.UPF
     MD5 check sum: 51ac066f8f4bf7da60c51ce0af5caf3d
     Pseudo is Norm-conserving + core correction, Zval =  2.0
     Generated by new atomic code, or converted to UPF format
     Using radial grid of  171 points,  2 beta functions with: 
                l(1) =   0
                l(2) =   1

     PseudoPot. # 2 for B  read from file:
     ../pp/B.pz-vbc.UPF
     MD5 check sum: b59596b5d63edeea6a2b3a0beace49c5
     Pseudo is Norm-conserving, Zval =  3.0
     Generated by new atomic code, or converted to UPF format
     Using radial grid of  157 points,  1 beta functions with: 
                l(1) =   0

     Mode symmetry, D_6h(6/mmm) point group:


     Atomic displacements:
     There are    6 irreducible representations

     Representation     1      1 modes -  To be done

     Representation     2      2 modes -  To be done

     Representation     3      1 modes -  To be done

     Representation     4      1 modes -  To be done

     Representation     5      2 modes -  To be done

     Representation     6      2 modes -  To be done



     Alpha used in Ewald sum =   1.7000
     PHONON       :   7m16.13s CPU   7m45.93s WALL



     Representation #   1 mode #   1

     Self-consistent Calculation

      iter #   1 total cpu time :   468.6 secs   av.it.:   5.5
      thresh= 1.000E-02 alpha_mix =  0.700 |ddv_scf|^2 =  6.718E-04

      iter #   2 total cpu time :   470.8 secs   av.it.:   7.2
      thresh= 2.592E-03 alpha_mix =  0.700 |ddv_scf|^2 =  3.617E-03

      iter #   3 total cpu time :   472.6 secs   av.it.:   6.1
      thresh= 6.014E-03 alpha_mix =  0.700 |ddv_scf|^2 =  5.344E-08

      iter #   4 total cpu time :   474.5 secs   av.it.:   6.9
      thresh= 2.312E-05 alpha_mix =  0.700 |ddv_scf|^2 =  4.947E-10

      iter #   5 total cpu time :   476.4 secs   av.it.:   6.5
      thresh= 2.224E-06 alpha_mix =  0.700 |ddv_scf|^2 =  1.244E-11

      iter #   6 total cpu time :   478.3 secs   av.it.:   6.4
      thresh= 3.528E-07 alpha_mix =  0.700 |ddv_scf|^2 =  4.690E-15

     End of self-consistent calculation

     Convergence has been achieved 


     Representation #   2 modes #   2   3

     Self-consistent Calculation

      iter #   1 total cpu time :   482.3 secs   av.it.:   4.7
      thresh= 1.000E-02 alpha_mix =  0.700 |ddv_scf|^2 =  8.797E-08

      iter #   2 total cpu time :   486.6 secs   av.it.:   8.6
      thresh= 2.966E-05 alpha_mix =  0.700 |ddv_scf|^2 =  3.216E-10

      iter #   3 total cpu time :   490.4 secs   av.it.:   7.2
      thresh= 1.793E-06 alpha_mix =  0.700 |ddv_scf|^2 =  2.974E-11

      iter #   4 total cpu time :   494.2 secs   av.it.:   7.5
      thresh= 5.453E-07 alpha_mix =  0.700 |ddv_scf|^2 =  5.351E-15

     End of self-consistent calculation

     Convergence has been achieved 


     Representation #   3 mode #   4

     Self-consistent Calculation

      iter #   1 total cpu time :   496.8 secs   av.it.:   4.2
      thresh= 1.000E-02 alpha_mix =  0.700 |ddv_scf|^2 =  2.153E-04

      iter #   2 total cpu time :   498.8 secs   av.it.:   7.4
      thresh= 1.467E-03 alpha_mix =  0.700 |ddv_scf|^2 =  3.886E-03

      iter #   3 total cpu time :   500.7 secs   av.it.:   6.0
      thresh= 6.233E-03 alpha_mix =  0.700 |ddv_scf|^2 =  2.808E-09

      iter #   4 total cpu time :   502.8 secs   av.it.:   8.0
      thresh= 5.299E-06 alpha_mix =  0.700 |ddv_scf|^2 =  5.306E-10

      iter #   5 total cpu time :   504.9 secs   av.it.:   7.0
      thresh= 2.303E-06 alpha_mix =  0.700 |ddv_scf|^2 =  4.610E-11

      iter #   6 total cpu time :   506.8 secs   av.it.:   6.2
      thresh= 6.790E-07 alpha_mix =  0.700 |ddv_scf|^2 =  7.993E-15

     End of self-consistent calculation

     Convergence has been achieved 


     Representation #   4 mode #   5

     Self-consistent Calculation

      iter #   1 total cpu time :   508.9 secs   av.it.:   4.3
      thresh= 1.000E-02 alpha_mix =  0.700 |ddv_scf|^2 =  2.447E-07

      iter #   2 total cpu time :   510.8 secs   av.it.:   7.4
      thresh= 4.946E-05 alpha_mix =  0.700 |ddv_scf|^2 =  1.173E-09

      iter #   3 total cpu time :   512.8 secs   av.it.:   6.9
      thresh= 3.425E-06 alpha_mix =  0.700 |ddv_scf|^2 =  7.724E-11

      iter #   4 total cpu time :   514.7 secs   av.it.:   6.4
      thresh= 8.789E-07 alpha_mix =  0.700 |ddv_scf|^2 =  5.662E-15

     End of self-consistent calculation

     Convergence has been achieved 


     Representation #   5 modes #   6   7

     Self-consistent Calculation

      iter #   1 total cpu time :   518.0 secs   av.it.:   2.6
      thresh= 1.000E-02 alpha_mix =  0.700 |ddv_scf|^2 =  1.135E-08

      iter #   2 total cpu time :   522.0 secs   av.it.:   7.7
      thresh= 1.065E-05 alpha_mix =  0.700 |ddv_scf|^2 =  7.299E-10

      iter #   3 total cpu time :   525.8 secs   av.it.:   7.4
      thresh= 2.702E-06 alpha_mix =  0.700 |ddv_scf|^2 =  2.101E-12

      iter #   4 total cpu time :   529.7 secs   av.it.:   7.9
      thresh= 1.449E-07 alpha_mix =  0.700 |ddv_scf|^2 =  1.536E-14

      iter #   5 total cpu time :   533.6 secs   av.it.:   7.6
      thresh= 1.239E-08 alpha_mix =  0.700 |ddv_scf|^2 =  2.305E-16

     End of self-consistent calculation

     Convergence has been achieved 


     Representation #   6 modes #   8   9

     Self-consistent Calculation

      iter #   1 total cpu time :   537.8 secs   av.it.:   5.0
      thresh= 1.000E-02 alpha_mix =  0.700 |ddv_scf|^2 =  6.211E-07

      iter #   2 total cpu time :   542.1 secs   av.it.:   8.8
      thresh= 7.881E-05 alpha_mix =  0.700 |ddv_scf|^2 =  1.414E-08

      iter #   3 total cpu time :   546.3 secs   av.it.:   8.7
      thresh= 1.189E-05 alpha_mix =  0.700 |ddv_scf|^2 =  4.707E-11

      iter #   4 total cpu time :   550.2 secs   av.it.:   7.9
      thresh= 6.861E-07 alpha_mix =  0.700 |ddv_scf|^2 =  5.145E-15

     End of self-consistent calculation

     Convergence has been achieved 

     Number of q in the star =    1
     List of q in the star:
          1   0.000000000   0.000000000  -0.437801761

     Diagonalizing the dynamical matrix

     q = (    0.000000000   0.000000000  -0.437801761 ) 

 **************************************************************************
     freq (    1) =       6.576638 [THz] =     219.373015 [cm-1]
     freq (    2) =       6.576638 [THz] =     219.373015 [cm-1]
     freq (    3) =       6.660908 [THz] =     222.183965 [cm-1]
     freq (    4) =       6.660908 [THz] =     222.183965 [cm-1]
     freq (    5) =       9.288305 [THz] =     309.824522 [cm-1]
     freq (    6) =      11.304594 [THz] =     377.080669 [cm-1]
     freq (    7) =      11.757938 [THz] =     392.202583 [cm-1]
     freq (    8) =      11.757938 [THz] =     392.202583 [cm-1]
     freq (    9) =      19.291026 [THz] =     643.479350 [cm-1]
 **************************************************************************

     Mode symmetry, D_6h(6/mmm) point group:

     freq (   1-   2) =        219.4  [cm-1]   --> E_1u               
     freq (   3-   4) =        222.2  [cm-1]   --> E_1g               
     freq (   5-   5) =        309.8  [cm-1]   --> A_2u               
     freq (   6-   6) =        377.1  [cm-1]   --> A_1g               
     freq (   7-   8) =        392.2  [cm-1]   --> E_2u               
     freq (   9-   9) =        643.5  [cm-1]   --> B_2u               

     Calculation of q =    0.0000000   0.1924501   0.0000000

     Parallelization info
     --------------------
     sticks:   dense  smooth     PW     G-vecs:    dense   smooth      PW
     Min         189     189     60                 3328     3328     648
     Max         190     190     61                 3329     3329     651
     Sum         379     379    121                 6657     6657    1299


     Title: 
     --                                                                         


     bravais-lattice index     =            4
     lattice parameter (alat)  =       5.8260  a.u.
     unit-cell volume          =     195.5871 (a.u.)^3
     number of atoms/cell      =            3
     number of atomic types    =            2
     number of electrons       =         8.00
     number of Kohn-Sham states=            8
     kinetic-energy cutoff     =      40.0000  Ry
     charge density cutoff     =     160.0000  Ry
     Exchange-correlation= PZ
                           (   1   1   0   0   0   0   0)

     celldm(1)=   5.826025  celldm(2)=   0.000000  celldm(3)=   1.142069
     celldm(4)=   0.000000  celldm(5)=   0.000000  celldm(6)=   0.000000

     crystal axes: (cart. coord. in units of alat)
               a(1) = (   1.000000   0.000000   0.000000 )  
               a(2) = (  -0.500000   0.866025   0.000000 )  
               a(3) = (   0.000000   0.000000   1.142069 )  

     reciprocal axes: (cart. coord. in units 2 pi/alat)
               b(1) = (  1.000000  0.577350 -0.000000 )  
               b(2) = (  0.000000  1.154701  0.000000 )  
               b(3) = (  0.000000 -0.000000  0.875604 )  


     PseudoPot. # 1 for Mg read from file:
     ../pp/Mg.pz-n-vbc.UPF
     MD5 check sum: 51ac066f8f4bf7da60c51ce0af5caf3d
     Pseudo is Norm-conserving + core correction, Zval =  2.0
     Generated by new atomic code, or converted to UPF format
     Using radial grid of  171 points,  2 beta functions with: 
                l(1) =   0
                l(2) =   1

     PseudoPot. # 2 for B  read from file:
     ../pp/B.pz-vbc.UPF
     MD5 check sum: b59596b5d63edeea6a2b3a0beace49c5
     Pseudo is Norm-conserving, Zval =  3.0
     Generated by new atomic code, or converted to UPF format
     Using radial grid of  157 points,  1 beta functions with: 
                l(1) =   0

     atomic species   valence    mass     pseudopotential
        Mg             2.00    24.30500     Mg( 1.00)
        B              3.00    10.81100     B ( 1.00)

     24 Sym. Ops., with inversion, found



   Cartesian axes

     site n.     atom                  positions (alat units)
         1           Mg  tau(   1) = (   0.0000000   0.0000000   0.0000000  )
         2           B   tau(   2) = (  -0.0000000   0.5773503   0.5710347  )
         3           B   tau(   3) = (   0.5000000   0.2886751   0.5710347  )

     number of k points=  1092  Methfessel-Paxton smearing, width (Ry)=  0.0200

     Number of k-points >= 100: set verbosity='high' to print them.

     Dense  grid:     6657 G-vectors     FFT dimensions: (  24,  24,  27)

     Estimated max dynamical RAM per process >       1.84 MB

     Estimated total dynamical RAM >       3.68 MB

     The potential is recalculated from file :
     ./_ph0/MgB2.q_5/MgB2.save/charge-density

     Starting wfcs are   12 atomic wfcs

     Band Structure Calculation
     Davidson diagonalization with overlap

     ethr =  1.25E-10,  avg # of iterations = 18.4

     total cpu time spent up to now is       90.9 secs

     End of band structure calculation

     Number of k-points >= 100: set verbosity='high' to print the bands.

     the Fermi energy is     7.4185 ev

     Writing output data file ./_ph0/MgB2.q_5/MgB2.save/

     --                                                                         

     bravais-lattice index     =            4
     lattice parameter (alat)  =       5.8260  a.u.
     unit-cell volume          =     195.5871 (a.u.)^3
     number of atoms/cell      =            3
     number of atomic types    =            2
     kinetic-energy cut-off    =      40.0000  Ry
     charge density cut-off    =     160.0000  Ry
     convergence threshold     =      1.0E-14
     beta                      =       0.7000
     number of iterations used =            4
     Exchange-correlation= PZ
                           (   1   1   0   0   0   0   0)


     celldm(1)=    5.82603  celldm(2)=    0.00000  celldm(3)=    1.14207
     celldm(4)=    0.00000  celldm(5)=    0.00000  celldm(6)=    0.00000

     crystal axes: (cart. coord. in units of alat)
               a(1) = (  1.0000  0.0000  0.0000 )  
               a(2) = ( -0.5000  0.8660  0.0000 )  
               a(3) = (  0.0000  0.0000  1.1421 )  

     reciprocal axes: (cart. coord. in units 2 pi/alat)
               b(1) = (  1.0000  0.5774 -0.0000 )  
               b(2) = (  0.0000  1.1547  0.0000 )  
               b(3) = (  0.0000 -0.0000  0.8756 )  


     Atoms inside the unit cell: 

     Cartesian axes

     site n.  atom      mass           positions (alat units)
        1     Mg  24.3050   tau(    1) = (    0.00000    0.00000    0.00000  )
        2     B   10.8110   tau(    2) = (   -0.00000    0.57735    0.57103  )
        3     B   10.8110   tau(    3) = (    0.50000    0.28868    0.57103  )

     Computing dynamical matrix for 
                    q = (   0.0000000   0.1924501   0.0000000 )

      4 Sym.Ops. (no q -> -q+G )


     G cutoff =  137.5641  (   3328 G-vectors)     FFT grid: ( 24, 24, 27)

     number of k points=  1092  Methfessel-Paxton smearing, width (Ry)=  0.0200

     PseudoPot. # 1 for Mg read from file:
     ../pp/Mg.pz-n-vbc.UPF
     MD5 check sum: 51ac066f8f4bf7da60c51ce0af5caf3d
     Pseudo is Norm-conserving + core correction, Zval =  2.0
     Generated by new atomic code, or converted to UPF format
     Using radial grid of  171 points,  2 beta functions with: 
                l(1) =   0
                l(2) =   1

     PseudoPot. # 2 for B  read from file:
     ../pp/B.pz-vbc.UPF
     MD5 check sum: b59596b5d63edeea6a2b3a0beace49c5
     Pseudo is Norm-conserving, Zval =  3.0
     Generated by new atomic code, or converted to UPF format
     Using radial grid of  157 points,  1 beta functions with: 
                l(1) =   0

     Mode symmetry, C_2v (mm2)  point group:


     Atomic displacements:
     There are    9 irreducible representations

     Representation     1      1 modes -  To be done

     Representation     2      1 modes -  To be done

     Representation     3      1 modes -  To be done

     Representation     4      1 modes -  To be done

     Representation     5      1 modes -  To be done

     Representation     6      1 modes -  To be done

     Representation     7      1 modes -  To be done

     Representation     8      1 modes -  To be done

     Representation     9      1 modes -  To be done



     Alpha used in Ewald sum =   1.7000
     PHONON       :   9m15.42s CPU   9m52.18s WALL



     Representation #   1 mode #   1

     Self-consistent Calculation

      iter #   1 total cpu time :   599.3 secs   av.it.:   5.9
      thresh= 1.000E-02 alpha_mix =  0.700 |ddv_scf|^2 =  3.777E-02

      iter #   2 total cpu time :   606.7 secs   av.it.:   7.7
      thresh= 1.000E-02 alpha_mix =  0.700 |ddv_scf|^2 =  1.310E+01

      iter #   3 total cpu time :   613.8 secs   av.it.:   7.6
      thresh= 1.000E-02 alpha_mix =  0.700 |ddv_scf|^2 =  7.545E-05

      iter #   4 total cpu time :   620.3 secs   av.it.:   6.7
      thresh= 8.686E-04 alpha_mix =  0.700 |ddv_scf|^2 =  1.087E-06

      iter #   5 total cpu time :   627.8 secs   av.it.:   7.8
      thresh= 1.043E-04 alpha_mix =  0.700 |ddv_scf|^2 =  2.035E-07

      iter #   6 total cpu time :   633.0 secs   av.it.:   4.5
      thresh= 4.511E-05 alpha_mix =  0.700 |ddv_scf|^2 =  1.821E-08

      iter #   7 total cpu time :   639.4 secs   av.it.:   6.5
      thresh= 1.350E-05 alpha_mix =  0.700 |ddv_scf|^2 =  2.425E-09

      iter #   8 total cpu time :   645.4 secs   av.it.:   5.9
      thresh= 4.924E-06 alpha_mix =  0.700 |ddv_scf|^2 =  2.754E-10

      iter #   9 total cpu time :   651.3 secs   av.it.:   5.8
      thresh= 1.659E-06 alpha_mix =  0.700 |ddv_scf|^2 =  1.750E-11

      iter #  10 total cpu time :   657.3 secs   av.it.:   5.8
      thresh= 4.183E-07 alpha_mix =  0.700 |ddv_scf|^2 =  2.568E-14

      iter #  11 total cpu time :   664.0 secs   av.it.:   7.1
      thresh= 1.603E-08 alpha_mix =  0.700 |ddv_scf|^2 =  1.209E-14

      iter #  12 total cpu time :   670.6 secs   av.it.:   6.8
      thresh= 1.100E-08 alpha_mix =  0.700 |ddv_scf|^2 =  4.075E-17

     End of self-consistent calculation

     Convergence has been achieved 


     Representation #   2 mode #   2

     Self-consistent Calculation

      iter #   1 total cpu time :   677.2 secs   av.it.:   4.7
      thresh= 1.000E-02 alpha_mix =  0.700 |ddv_scf|^2 =  1.523E-02

      iter #   2 total cpu time :   684.2 secs   av.it.:   7.2
      thresh= 1.000E-02 alpha_mix =  0.700 |ddv_scf|^2 =  5.283E+00

      iter #   3 total cpu time :   691.1 secs   av.it.:   7.2
      thresh= 1.000E-02 alpha_mix =  0.700 |ddv_scf|^2 =  2.709E-05

      iter #   4 total cpu time :   696.9 secs   av.it.:   5.6
      thresh= 5.205E-04 alpha_mix =  0.700 |ddv_scf|^2 =  3.872E-07

      iter #   5 total cpu time :   703.1 secs   av.it.:   6.3
      thresh= 6.223E-05 alpha_mix =  0.700 |ddv_scf|^2 =  8.576E-10

      iter #   6 total cpu time :   710.3 secs   av.it.:   7.8
      thresh= 2.928E-06 alpha_mix =  0.700 |ddv_scf|^2 =  2.900E-09

      iter #   7 total cpu time :   716.3 secs   av.it.:   5.9
      thresh= 5.385E-06 alpha_mix =  0.700 |ddv_scf|^2 =  2.006E-10

      iter #   8 total cpu time :   722.0 secs   av.it.:   5.5
      thresh= 1.416E-06 alpha_mix =  0.700 |ddv_scf|^2 =  4.084E-13

      iter #   9 total cpu time :   728.2 secs   av.it.:   6.2
      thresh= 6.391E-08 alpha_mix =  0.700 |ddv_scf|^2 =  3.245E-12

      iter #  10 total cpu time :   733.6 secs   av.it.:   4.7
      thresh= 1.801E-07 alpha_mix =  0.700 |ddv_scf|^2 =  3.576E-15

     End of self-consistent calculation

     Convergence has been achieved 


     Representation #   3 mode #   3

     Self-consistent Calculation

      iter #   1 total cpu time :   740.9 secs   av.it.:   5.9
      thresh= 1.000E-02 alpha_mix =  0.700 |ddv_scf|^2 =  3.777E-02

      iter #   2 total cpu time :   748.2 secs   av.it.:   7.7
      thresh= 1.000E-02 alpha_mix =  0.700 |ddv_scf|^2 =  1.310E+01

      iter #   3 total cpu time :   755.2 secs   av.it.:   7.6
      thresh= 1.000E-02 alpha_mix =  0.700 |ddv_scf|^2 =  7.545E-05

      iter #   4 total cpu time :   761.7 secs   av.it.:   6.7
      thresh= 8.686E-04 alpha_mix =  0.700 |ddv_scf|^2 =  1.087E-06

      iter #   5 total cpu time :   769.0 secs   av.it.:   7.8
      thresh= 1.043E-04 alpha_mix =  0.700 |ddv_scf|^2 =  2.035E-07

      iter #   6 total cpu time :   774.2 secs   av.it.:   4.5
      thresh= 4.511E-05 alpha_mix =  0.700 |ddv_scf|^2 =  1.821E-08

      iter #   7 total cpu time :   780.6 secs   av.it.:   6.5
      thresh= 1.350E-05 alpha_mix =  0.700 |ddv_scf|^2 =  2.425E-09

      iter #   8 total cpu time :   786.6 secs   av.it.:   5.9
      thresh= 4.924E-06 alpha_mix =  0.700 |ddv_scf|^2 =  2.754E-10

      iter #   9 total cpu time :   792.5 secs   av.it.:   5.8
      thresh= 1.659E-06 alpha_mix =  0.700 |ddv_scf|^2 =  1.750E-11

      iter #  10 total cpu time :   798.5 secs   av.it.:   5.8
      thresh= 4.183E-07 alpha_mix =  0.700 |ddv_scf|^2 =  2.568E-14

      iter #  11 total cpu time :   805.2 secs   av.it.:   7.1
      thresh= 1.603E-08 alpha_mix =  0.700 |ddv_scf|^2 =  1.209E-14

      iter #  12 total cpu time :   811.7 secs   av.it.:   6.8
      thresh= 1.100E-08 alpha_mix =  0.700 |ddv_scf|^2 =  4.075E-17

     End of self-consistent calculation

     Convergence has been achieved 


     Representation #   4 mode #   4

     Self-consistent Calculation

      iter #   1 total cpu time :   818.7 secs   av.it.:   5.2
      thresh= 1.000E-02 alpha_mix =  0.700 |ddv_scf|^2 =  1.863E-06

      iter #   2 total cpu time :   826.3 secs   av.it.:   8.3
      thresh= 1.365E-04 alpha_mix =  0.700 |ddv_scf|^2 =  6.832E-08

      iter #   3 total cpu time :   833.6 secs   av.it.:   8.1
      thresh= 2.614E-05 alpha_mix =  0.700 |ddv_scf|^2 =  2.213E-10

      iter #   4 total cpu time :   840.7 secs   av.it.:   7.7
      thresh= 1.488E-06 alpha_mix =  0.700 |ddv_scf|^2 =  1.161E-11

      iter #   5 total cpu time :   847.7 secs   av.it.:   7.4
      thresh= 3.407E-07 alpha_mix =  0.700 |ddv_scf|^2 =  2.536E-15

     End of self-consistent calculation

     Convergence has been achieved 


     Representation #   5 mode #   5

     Self-consistent Calculation

      iter #   1 total cpu time :   854.6 secs   av.it.:   5.2
      thresh= 1.000E-02 alpha_mix =  0.700 |ddv_scf|^2 =  1.863E-06

      iter #   2 total cpu time :   862.2 secs   av.it.:   8.3
      thresh= 1.365E-04 alpha_mix =  0.700 |ddv_scf|^2 =  6.832E-08

      iter #   3 total cpu time :   869.5 secs   av.it.:   8.1
      thresh= 2.614E-05 alpha_mix =  0.700 |ddv_scf|^2 =  2.213E-10

      iter #   4 total cpu time :   876.7 secs   av.it.:   7.7
      thresh= 1.488E-06 alpha_mix =  0.700 |ddv_scf|^2 =  1.161E-11

      iter #   5 total cpu time :   883.6 secs   av.it.:   7.4
      thresh= 3.407E-07 alpha_mix =  0.700 |ddv_scf|^2 =  2.536E-15

     End of self-consistent calculation

     Convergence has been achieved 


     Representation #   6 mode #   6

     Self-consistent Calculation

      iter #   1 total cpu time :   889.2 secs   av.it.:   2.9
      thresh= 1.000E-02 alpha_mix =  0.700 |ddv_scf|^2 =  4.888E-08

      iter #   2 total cpu time :   896.6 secs   av.it.:   7.7
      thresh= 2.211E-05 alpha_mix =  0.700 |ddv_scf|^2 =  3.380E-09

      iter #   3 total cpu time :   903.6 secs   av.it.:   7.6
      thresh= 5.813E-06 alpha_mix =  0.700 |ddv_scf|^2 =  5.701E-11

      iter #   4 total cpu time :   910.9 secs   av.it.:   8.0
      thresh= 7.551E-07 alpha_mix =  0.700 |ddv_scf|^2 =  6.747E-13

      iter #   5 total cpu time :   918.3 secs   av.it.:   8.2
      thresh= 8.214E-08 alpha_mix =  0.700 |ddv_scf|^2 =  1.498E-14

      iter #   6 total cpu time :   925.8 secs   av.it.:   8.3
      thresh= 1.224E-08 alpha_mix =  0.700 |ddv_scf|^2 =  3.968E-16

     End of self-consistent calculation

     Convergence has been achieved 


     Representation #   7 mode #   7

     Self-consistent Calculation

      iter #   1 total cpu time :   931.9 secs   av.it.:   3.7
      thresh= 1.000E-02 alpha_mix =  0.700 |ddv_scf|^2 =  2.225E-07

      iter #   2 total cpu time :   939.2 secs   av.it.:   7.9
      thresh= 4.717E-05 alpha_mix =  0.700 |ddv_scf|^2 =  3.958E-08

      iter #   3 total cpu time :   946.2 secs   av.it.:   7.6
      thresh= 1.989E-05 alpha_mix =  0.700 |ddv_scf|^2 =  6.333E-10

      iter #   4 total cpu time :   953.1 secs   av.it.:   7.3
      thresh= 2.517E-06 alpha_mix =  0.700 |ddv_scf|^2 =  9.424E-13

      iter #   5 total cpu time :   960.4 secs   av.it.:   8.0
      thresh= 9.708E-08 alpha_mix =  0.700 |ddv_scf|^2 =  2.725E-14

      iter #   6 total cpu time :   968.0 secs   av.it.:   7.8
      thresh= 1.651E-08 alpha_mix =  0.700 |ddv_scf|^2 =  2.178E-16

     End of self-consistent calculation

     Convergence has been achieved 


     Representation #   8 mode #   8

     Self-consistent Calculation

      iter #   1 total cpu time :   975.3 secs   av.it.:   5.1
      thresh= 1.000E-02 alpha_mix =  0.700 |ddv_scf|^2 =  4.360E-06

      iter #   2 total cpu time :   984.0 secs   av.it.:   8.0
      thresh= 2.088E-04 alpha_mix =  0.700 |ddv_scf|^2 =  6.401E-07

      iter #   3 total cpu time :   991.7 secs   av.it.:   7.6
      thresh= 8.000E-05 alpha_mix =  0.700 |ddv_scf|^2 =  2.591E-10

      iter #   4 total cpu time :  1000.3 secs   av.it.:   7.8
      thresh= 1.610E-06 alpha_mix =  0.700 |ddv_scf|^2 =  1.528E-11

      iter #   5 total cpu time :  1008.1 secs   av.it.:   7.3
      thresh= 3.909E-07 alpha_mix =  0.700 |ddv_scf|^2 =  6.906E-15

     End of self-consistent calculation

     Convergence has been achieved 


     Representation #   9 mode #   9

     Self-consistent Calculation

      iter #   1 total cpu time :  1015.0 secs   av.it.:   5.1
      thresh= 1.000E-02 alpha_mix =  0.700 |ddv_scf|^2 =  4.360E-06

      iter #   2 total cpu time :  1022.4 secs   av.it.:   8.0
      thresh= 2.088E-04 alpha_mix =  0.700 |ddv_scf|^2 =  6.401E-07

      iter #   3 total cpu time :  1029.5 secs   av.it.:   7.6
      thresh= 8.000E-05 alpha_mix =  0.700 |ddv_scf|^2 =  2.591E-10

      iter #   4 total cpu time :  1036.6 secs   av.it.:   7.8
      thresh= 1.610E-06 alpha_mix =  0.700 |ddv_scf|^2 =  1.528E-11

      iter #   5 total cpu time :  1043.8 secs   av.it.:   7.3
      thresh= 3.909E-07 alpha_mix =  0.700 |ddv_scf|^2 =  6.906E-15

     End of self-consistent calculation

     Convergence has been achieved 

     Number of q in the star =    6
     List of q in the star:
          1   0.000000000   0.192450090   0.000000000
          2  -0.166666667  -0.096225045   0.000000000
          3   0.166666667  -0.096225045   0.000000000
          4   0.166666667   0.096225045   0.000000000
          5  -0.166666667   0.096225045   0.000000000
          6   0.000000000  -0.192450090   0.000000000

     Diagonalizing the dynamical matrix

     q = (    0.000000000   0.192450090   0.000000000 ) 

 **************************************************************************
     freq (    1) =       3.261704 [THz] =     108.798742 [cm-1]
     freq (    2) =       4.608240 [THz] =     153.714335 [cm-1]
     freq (    3) =       6.488949 [THz] =     216.448052 [cm-1]
     freq (    4) =      10.652570 [THz] =     355.331493 [cm-1]
     freq (    5) =      11.363215 [THz] =     379.036055 [cm-1]
     freq (    6) =      11.938257 [THz] =     398.217383 [cm-1]
     freq (    7) =      15.233322 [THz] =     508.128929 [cm-1]
     freq (    8) =      15.493482 [THz] =     516.806943 [cm-1]
     freq (    9) =      20.577212 [THz] =     686.381905 [cm-1]
 **************************************************************************

     Mode symmetry, C_2v (mm2)  point group:

     freq (   1-   1) =        108.8  [cm-1]   --> B_2  D_4  S_4      
     freq (   2-   2) =        153.7  [cm-1]   --> B_1  D_3  S_3      
     freq (   3-   3) =        216.4  [cm-1]   --> A_1  D_1  S_1      
     freq (   4-   4) =        355.3  [cm-1]   --> B_1  D_3  S_3      
     freq (   5-   5) =        379.0  [cm-1]   --> B_2  D_4  S_4      
     freq (   6-   6) =        398.2  [cm-1]   --> A_1  D_1  S_1      
     freq (   7-   7) =        508.1  [cm-1]   --> A_1  D_1  S_1      
     freq (   8-   8) =        516.8  [cm-1]   --> B_1  D_3  S_3      
     freq (   9-   9) =        686.4  [cm-1]   --> B_2  D_4  S_4      

     Calculation of q =    0.0000000   0.1924501   0.1459339

     Parallelization info
     --------------------
     sticks:   dense  smooth     PW     G-vecs:    dense   smooth      PW
     Min         189     189     60                 3328     3328     648
     Max         190     190     61                 3329     3329     651
     Sum         379     379    121                 6657     6657    1299


     Title: 
     --                                                                         


     bravais-lattice index     =            4
     lattice parameter (alat)  =       5.8260  a.u.
     unit-cell volume          =     195.5871 (a.u.)^3
     number of atoms/cell      =            3
     number of atomic types    =            2
     number of electrons       =         8.00
     number of Kohn-Sham states=            8
     kinetic-energy cutoff     =      40.0000  Ry
     charge density cutoff     =     160.0000  Ry
     Exchange-correlation= PZ
                           (   1   1   0   0   0   0   0)

     celldm(1)=   5.826025  celldm(2)=   0.000000  celldm(3)=   1.142069
     celldm(4)=   0.000000  celldm(5)=   0.000000  celldm(6)=   0.000000

     crystal axes: (cart. coord. in units of alat)
               a(1) = (   1.000000   0.000000   0.000000 )  
               a(2) = (  -0.500000   0.866025   0.000000 )  
               a(3) = (   0.000000   0.000000   1.142069 )  

     reciprocal axes: (cart. coord. in units 2 pi/alat)
               b(1) = (  1.000000  0.577350 -0.000000 )  
               b(2) = (  0.000000  1.154701  0.000000 )  
               b(3) = (  0.000000 -0.000000  0.875604 )  


     PseudoPot. # 1 for Mg read from file:
     ../pp/Mg.pz-n-vbc.UPF
     MD5 check sum: 51ac066f8f4bf7da60c51ce0af5caf3d
     Pseudo is Norm-conserving + core correction, Zval =  2.0
     Generated by new atomic code, or converted to UPF format
     Using radial grid of  171 points,  2 beta functions with: 
                l(1) =   0
                l(2) =   1

     PseudoPot. # 2 for B  read from file:
     ../pp/B.pz-vbc.UPF
     MD5 check sum: b59596b5d63edeea6a2b3a0beace49c5
     Pseudo is Norm-conserving, Zval =  3.0
     Generated by new atomic code, or converted to UPF format
     Using radial grid of  157 points,  1 beta functions with: 
                l(1) =   0

     atomic species   valence    mass     pseudopotential
        Mg             2.00    24.30500     Mg( 1.00)
        B              3.00    10.81100     B ( 1.00)

     24 Sym. Ops., with inversion, found



   Cartesian axes

     site n.     atom                  positions (alat units)
         1           Mg  tau(   1) = (   0.0000000   0.0000000   0.0000000  )
         2           B   tau(   2) = (  -0.0000000   0.5773503   0.5710347  )
         3           B   tau(   3) = (   0.5000000   0.2886751   0.5710347  )

     number of k points=  1872  Methfessel-Paxton smearing, width (Ry)=  0.0200

     Number of k-points >= 100: set verbosity='high' to print them.

     Dense  grid:     6657 G-vectors     FFT dimensions: (  24,  24,  27)

     Estimated max dynamical RAM per process >       1.84 MB

     Estimated total dynamical RAM >       3.69 MB

     The potential is recalculated from file :
     ./_ph0/MgB2.q_6/MgB2.save/charge-density

     Starting wfcs are   12 atomic wfcs

     Band Structure Calculation
     Davidson diagonalization with overlap

     ethr =  1.25E-10,  avg # of iterations = 18.8

     total cpu time spent up to now is      160.9 secs

     End of band structure calculation

     Number of k-points >= 100: set verbosity='high' to print the bands.

     the Fermi energy is     7.4185 ev

     Writing output data file ./_ph0/MgB2.q_6/MgB2.save/

     --                                                                         

     bravais-lattice index     =            4
     lattice parameter (alat)  =       5.8260  a.u.
     unit-cell volume          =     195.5871 (a.u.)^3
     number of atoms/cell      =            3
[...]

 **************************************************************************
     freq (    1) =       7.892378 [THz] =     263.261384 [cm-1]
     freq (    2) =       8.795879 [THz] =     293.398943 [cm-1]
     freq (    3) =       8.795879 [THz] =     293.398943 [cm-1]
     freq (    4) =      14.718936 [THz] =     490.970855 [cm-1]
     freq (    5) =      14.718936 [THz] =     490.970855 [cm-1]
     freq (    6) =      19.702910 [THz] =     657.218350 [cm-1]
     freq (    7) =      20.238139 [THz] =     675.071654 [cm-1]
     freq (    8) =      20.238139 [THz] =     675.071654 [cm-1]
     freq (    9) =      21.067716 [THz] =     702.743359 [cm-1]
 **************************************************************************

     Mode symmetry, C_3v (3m)   point group:

     freq (   1-   1) =        263.3  [cm-1]   --> A_1  L_1           
     freq (   2-   3) =        293.4  [cm-1]   --> E    L_3           
     freq (   4-   5) =        491.0  [cm-1]   --> E    L_3           
     freq (   6-   6) =        657.2  [cm-1]   --> A_2  L_2           
     freq (   7-   8) =        675.1  [cm-1]   --> E    L_3           
     freq (   9-   9) =        702.7  [cm-1]   --> A_1  L_1           

     Calculation of q =    0.3333333   0.5773503  -0.4378018

     Parallelization info
     --------------------
     sticks:   dense  smooth     PW     G-vecs:    dense   smooth      PW
     Min         189     189     75                 3328     3328     879
     Max         190     190     76                 3329     3329     884
     Sum         379     379    151                 6657     6657    1763


     Title: 
     --                                                                         


     bravais-lattice index     =            4
     lattice parameter (alat)  =       5.8260  a.u.
     unit-cell volume          =     195.5871 (a.u.)^3
     number of atoms/cell      =            3
     number of atomic types    =            2
     number of electrons       =         8.00
     number of Kohn-Sham states=            8
     kinetic-energy cutoff     =      40.0000  Ry
     charge density cutoff     =     160.0000  Ry
     Exchange-correlation= PZ
                           (   1   1   0   0   0   0   0)

     celldm(1)=   5.826025  celldm(2)=   0.000000  celldm(3)=   1.142069
     celldm(4)=   0.000000  celldm(5)=   0.000000  celldm(6)=   0.000000

     crystal axes: (cart. coord. in units of alat)
               a(1) = (   1.000000   0.000000   0.000000 )  
               a(2) = (  -0.500000   0.866025   0.000000 )  
               a(3) = (   0.000000   0.000000   1.142069 )  

     reciprocal axes: (cart. coord. in units 2 pi/alat)
               b(1) = (  1.000000  0.577350 -0.000000 )  
               b(2) = (  0.000000  1.154701  0.000000 )  
               b(3) = (  0.000000 -0.000000  0.875604 )  


     PseudoPot. # 1 for Mg read from file:
     ../pp/Mg.pz-n-vbc.UPF
     MD5 check sum: 51ac066f8f4bf7da60c51ce0af5caf3d
     Pseudo is Norm-conserving + core correction, Zval =  2.0
     Generated by new atomic code, or converted to UPF format
     Using radial grid of  171 points,  2 beta functions with: 
                l(1) =   0
                l(2) =   1

     PseudoPot. # 2 for B  read from file:
     ../pp/B.pz-vbc.UPF
     MD5 check sum: b59596b5d63edeea6a2b3a0beace49c5
     Pseudo is Norm-conserving, Zval =  3.0
     Generated by new atomic code, or converted to UPF format
     Using radial grid of  157 points,  1 beta functions with: 
                l(1) =   0

     atomic species   valence    mass     pseudopotential
        Mg             2.00    24.30500     Mg( 1.00)
        B              3.00    10.81100     B ( 1.00)

     24 Sym. Ops., with inversion, found



   Cartesian axes

     site n.     atom                  positions (alat units)
         1           Mg  tau(   1) = (   0.0000000   0.0000000   0.0000000  )
         2           B   tau(   2) = (  -0.0000000   0.5773503   0.5710347  )
         3           B   tau(   3) = (   0.5000000   0.2886751   0.5710347  )

     number of k points=   434  Methfessel-Paxton smearing, width (Ry)=  0.0200

     Number of k-points >= 100: set verbosity='high' to print them.

     Dense  grid:     6657 G-vectors     FFT dimensions: (  24,  24,  27)

     Estimated max dynamical RAM per process >       1.85 MB

     Estimated total dynamical RAM >       3.70 MB

     The potential is recalculated from file :
     ./_ph0/MgB2.q_28/MgB2.save/charge-density

     Starting wfcs are   12 atomic wfcs

     Band Structure Calculation
     Davidson diagonalization with overlap

     ethr =  1.25E-10,  avg # of iterations = 17.6

     total cpu time spent up to now is     1400.4 secs

     End of band structure calculation

     Number of k-points >= 100: set verbosity='high' to print the bands.

     the Fermi energy is     7.4185 ev

     Writing output data file ./_ph0/MgB2.q_28/MgB2.save/

     --                                                                         

     bravais-lattice index     =            4
     lattice parameter (alat)  =       5.8260  a.u.
     unit-cell volume          =     195.5871 (a.u.)^3
     number of atoms/cell      =            3
     number of atomic types    =            2
     kinetic-energy cut-off    =      40.0000  Ry
     charge density cut-off    =     160.0000  Ry
     convergence threshold     =      1.0E-14
     beta                      =       0.7000
     number of iterations used =            4
     Exchange-correlation= PZ
                           (   1   1   0   0   0   0   0)


     celldm(1)=    5.82603  celldm(2)=    0.00000  celldm(3)=    1.14207
     celldm(4)=    0.00000  celldm(5)=    0.00000  celldm(6)=    0.00000

     crystal axes: (cart. coord. in units of alat)
               a(1) = (  1.0000  0.0000  0.0000 )  
               a(2) = ( -0.5000  0.8660  0.0000 )  
               a(3) = (  0.0000  0.0000  1.1421 )  

     reciprocal axes: (cart. coord. in units 2 pi/alat)
               b(1) = (  1.0000  0.5774 -0.0000 )  
               b(2) = (  0.0000  1.1547  0.0000 )  
               b(3) = (  0.0000 -0.0000  0.8756 )  


     Atoms inside the unit cell: 

     Cartesian axes

     site n.  atom      mass           positions (alat units)
        1     Mg  24.3050   tau(    1) = (    0.00000    0.00000    0.00000  )
        2     B   10.8110   tau(    2) = (   -0.00000    0.57735    0.57103  )
        3     B   10.8110   tau(    3) = (    0.50000    0.28868    0.57103  )

     Computing dynamical matrix for 
                    q = (   0.3333333   0.5773503  -0.4378018 )

     12 Sym.Ops. (no q -> -q+G )


     G cutoff =  137.5641  (   3328 G-vectors)     FFT grid: ( 24, 24, 27)

     number of k points=   434  Methfessel-Paxton smearing, width (Ry)=  0.0200

     PseudoPot. # 1 for Mg read from file:
     ../pp/Mg.pz-n-vbc.UPF
     MD5 check sum: 51ac066f8f4bf7da60c51ce0af5caf3d
     Pseudo is Norm-conserving + core correction, Zval =  2.0
     Generated by new atomic code, or converted to UPF format
     Using radial grid of  171 points,  2 beta functions with: 
                l(1) =   0
                l(2) =   1

     PseudoPot. # 2 for B  read from file:
     ../pp/B.pz-vbc.UPF
     MD5 check sum: b59596b5d63edeea6a2b3a0beace49c5
     Pseudo is Norm-conserving, Zval =  3.0
     Generated by new atomic code, or converted to UPF format
     Using radial grid of  157 points,  1 beta functions with: 
                l(1) =   0

     Mode symmetry, D_3h (-62m) point group:


     Atomic displacements:
     There are    6 irreducible representations

     Representation     1      2 modes -  To be done

     Representation     2      2 modes -  To be done

     Representation     3      1 modes -  To be done

     Representation     4      1 modes -  To be done

     Representation     5      1 modes -  To be done

     Representation     6      2 modes -  To be done



     Alpha used in Ewald sum =   1.7000
     PHONON       :      4h58m CPU      5h20m WALL



     Representation #   1 modes #   1   2

     Self-consistent Calculation

      iter #   1 total cpu time : 19207.9 secs   av.it.:   5.1
      thresh= 1.000E-02 alpha_mix =  0.700 |ddv_scf|^2 =  1.901E-06

      iter #   2 total cpu time : 19214.7 secs   av.it.:   8.5
      thresh= 1.379E-04 alpha_mix =  0.700 |ddv_scf|^2 =  3.600E-07

      iter #   3 total cpu time : 19221.3 secs   av.it.:   8.1
      thresh= 6.000E-05 alpha_mix =  0.700 |ddv_scf|^2 =  9.907E-11

      iter #   4 total cpu time : 19228.0 secs   av.it.:   8.4
      thresh= 9.954E-07 alpha_mix =  0.700 |ddv_scf|^2 =  1.273E-12

      iter #   5 total cpu time : 19234.5 secs   av.it.:   8.0
      thresh= 1.128E-07 alpha_mix =  0.700 |ddv_scf|^2 =  7.990E-15

     End of self-consistent calculation

     Convergence has been achieved 


     Representation #   2 modes #   3   4

     Self-consistent Calculation

      iter #   1 total cpu time : 19239.9 secs   av.it.:   3.7
      thresh= 1.000E-02 alpha_mix =  0.700 |ddv_scf|^2 =  1.192E-07

      iter #   2 total cpu time : 19246.7 secs   av.it.:   8.5
      thresh= 3.453E-05 alpha_mix =  0.700 |ddv_scf|^2 =  2.443E-08

      iter #   3 total cpu time : 19253.2 secs   av.it.:   8.1
      thresh= 1.563E-05 alpha_mix =  0.700 |ddv_scf|^2 =  1.791E-10

      iter #   4 total cpu time : 19259.6 secs   av.it.:   7.9
      thresh= 1.338E-06 alpha_mix =  0.700 |ddv_scf|^2 =  4.223E-13

      iter #   5 total cpu time : 19266.3 secs   av.it.:   8.6
      thresh= 6.498E-08 alpha_mix =  0.700 |ddv_scf|^2 =  1.930E-15

     End of self-consistent calculation

     Convergence has been achieved 


     Representation #   3 mode #   5

     Self-consistent Calculation

      iter #   1 total cpu time : 19270.0 secs   av.it.:   4.4
      thresh= 1.000E-02 alpha_mix =  0.700 |ddv_scf|^2 =  1.480E-08

      iter #   2 total cpu time : 19273.7 secs   av.it.:   7.9
      thresh= 1.217E-05 alpha_mix =  0.700 |ddv_scf|^2 =  1.242E-09

      iter #   3 total cpu time : 19277.0 secs   av.it.:   7.2
      thresh= 3.524E-06 alpha_mix =  0.700 |ddv_scf|^2 =  4.721E-12

      iter #   4 total cpu time : 19280.5 secs   av.it.:   7.5
      thresh= 2.173E-07 alpha_mix =  0.700 |ddv_scf|^2 =  5.691E-15

     End of self-consistent calculation

     Convergence has been achieved 


     Representation #   4 mode #   6

     Self-consistent Calculation

      iter #   1 total cpu time : 19284.0 secs   av.it.:   3.8
      thresh= 1.000E-02 alpha_mix =  0.700 |ddv_scf|^2 =  5.988E-07

      iter #   2 total cpu time : 19287.6 secs   av.it.:   7.8
      thresh= 7.738E-05 alpha_mix =  0.700 |ddv_scf|^2 =  1.948E-07

      iter #   3 total cpu time : 19291.1 secs   av.it.:   7.5
      thresh= 4.413E-05 alpha_mix =  0.700 |ddv_scf|^2 =  8.284E-10

      iter #   4 total cpu time : 19294.4 secs   av.it.:   7.4
      thresh= 2.878E-06 alpha_mix =  0.700 |ddv_scf|^2 =  1.301E-12

      iter #   5 total cpu time : 19298.0 secs   av.it.:   7.7
      thresh= 1.140E-07 alpha_mix =  0.700 |ddv_scf|^2 =  2.242E-14

      iter #   6 total cpu time : 19301.5 secs   av.it.:   7.8
      thresh= 1.497E-08 alpha_mix =  0.700 |ddv_scf|^2 =  1.190E-16

     End of self-consistent calculation

     Convergence has been achieved 


     Representation #   5 mode #   7

     Self-consistent Calculation

      iter #   1 total cpu time : 19305.4 secs   av.it.:   5.4
      thresh= 1.000E-02 alpha_mix =  0.700 |ddv_scf|^2 =  2.247E-05

      iter #   2 total cpu time : 19309.0 secs   av.it.:   7.9
      thresh= 4.740E-04 alpha_mix =  0.700 |ddv_scf|^2 =  7.056E-06

      iter #   3 total cpu time : 19312.5 secs   av.it.:   7.5
      thresh= 2.656E-04 alpha_mix =  0.700 |ddv_scf|^2 =  6.752E-10

      iter #   4 total cpu time : 19316.0 secs   av.it.:   7.8
      thresh= 2.599E-06 alpha_mix =  0.700 |ddv_scf|^2 =  1.765E-11

      iter #   5 total cpu time : 19319.3 secs   av.it.:   7.2
      thresh= 4.201E-07 alpha_mix =  0.700 |ddv_scf|^2 =  4.838E-14

      iter #   6 total cpu time : 19322.9 secs   av.it.:   7.8
      thresh= 2.199E-08 alpha_mix =  0.700 |ddv_scf|^2 =  1.010E-16

     End of self-consistent calculation

     Convergence has been achieved 


     Representation #   6 modes #   8   9

     Self-consistent Calculation

      iter #   1 total cpu time : 19329.2 secs   av.it.:   5.5
      thresh= 1.000E-02 alpha_mix =  0.700 |ddv_scf|^2 =  5.356E-06

      iter #   2 total cpu time : 19336.4 secs   av.it.:   9.1
      thresh= 2.314E-04 alpha_mix =  0.700 |ddv_scf|^2 =  7.401E-06

      iter #   3 total cpu time : 19343.0 secs   av.it.:   8.4
      thresh= 2.720E-04 alpha_mix =  0.700 |ddv_scf|^2 =  2.918E-09

      iter #   4 total cpu time : 19349.7 secs   av.it.:   8.4
      thresh= 5.402E-06 alpha_mix =  0.700 |ddv_scf|^2 =  1.071E-11

      iter #   5 total cpu time : 19356.1 secs   av.it.:   7.9
      thresh= 3.272E-07 alpha_mix =  0.700 |ddv_scf|^2 =  6.927E-15

     End of self-consistent calculation

     Convergence has been achieved 

     Number of q in the star =    2
     List of q in the star:
          1   0.333333333   0.577350269  -0.437801761
          2  -0.333333333  -0.577350269  -0.437801761

     Diagonalizing the dynamical matrix

     q = (    0.333333333   0.577350269  -0.437801761 ) 

 **************************************************************************
     freq (    1) =       7.944889 [THz] =     265.012968 [cm-1]
     freq (    2) =       8.829538 [THz] =     294.521678 [cm-1]
     freq (    3) =       8.829538 [THz] =     294.521678 [cm-1]
     freq (    4) =      15.009734 [THz] =     500.670851 [cm-1]
     freq (    5) =      15.009735 [THz] =     500.670851 [cm-1]
     freq (    6) =      19.730484 [THz] =     658.138090 [cm-1]
     freq (    7) =      20.236610 [THz] =     675.020661 [cm-1]
     freq (    8) =      20.236610 [THz] =     675.020662 [cm-1]
     freq (    9) =      20.692714 [THz] =     690.234636 [cm-1]
 **************************************************************************

     Mode symmetry, D_3h (-62m) point group:

     freq (   1-   1) =        265.0  [cm-1]   --> A''2               
     freq (   2-   3) =        294.5  [cm-1]   --> E'                 
     freq (   4-   5) =        500.7  [cm-1]   --> E'                 
     freq (   6-   6) =        658.1  [cm-1]   --> A''1               
     freq (   7-   8) =        675.0  [cm-1]   --> E''                
     freq (   9-   9) =        690.2  [cm-1]   --> A''2               

     init_run     :      2.54s CPU      2.82s WALL (      27 calls)
     electrons    :   1324.70s CPU   1394.55s WALL (      27 calls)

     Called by init_run:
     wfcinit      :      0.00s CPU      0.01s WALL (      27 calls)
     potinit      :      0.05s CPU      0.27s WALL (      27 calls)
     hinit0       :      0.53s CPU      0.54s WALL (      27 calls)

     Called by electrons:
     c_bands      :   1324.32s CPU   1394.15s WALL (      27 calls)
     v_of_rho     :      0.03s CPU      0.03s WALL (      28 calls)

     Called by c_bands:
     init_us_2    :    126.56s CPU    135.30s WALL ( 1517299 calls)
     cegterg      :   1193.36s CPU   1250.67s WALL (   43848 calls)

     Called by *egterg:
     cdiaghg      :    101.20s CPU    106.21s WALL (  693722 calls)
     h_psi        :  12641.10s CPU  13538.70s WALL (13268083 calls)
     g_psi        :      5.99s CPU      6.31s WALL (  658192 calls)

     Called by h_psi:
     h_psi:calbec :    290.84s CPU    310.60s WALL (13268083 calls)
     vloc_psi     :  12070.27s CPU  12928.66s WALL (13268083 calls)
     add_vuspsi   :    182.67s CPU    196.34s WALL (13268083 calls)

     General routines
     calbec       :    531.44s CPU    569.33s WALL (26622702 calls)
     fft          :      1.87s CPU      2.02s WALL (   10026 calls)
     ffts         :     32.46s CPU     35.06s WALL (  166500 calls)
     fftw         :  14078.66s CPU  15087.86s WALL (******** calls)
     davcio       :    319.43s CPU    393.01s WALL ( 6641831 calls)

     Parallel routines
     fft_scatt_xy :   1349.12s CPU   1443.09s WALL (******** calls)
     fft_scatt_yz :   2238.22s CPU   2395.57s WALL (******** calls)

     PHONON       :      5h 0m CPU      5h22m WALL

     INITIALIZATION: 
     phq_setup    :      0.11s CPU      0.22s WALL (      28 calls)
     phq_init     :     22.91s CPU     24.77s WALL (      28 calls)

     phq_init     :     22.91s CPU     24.77s WALL (      28 calls)
     set_drhoc    :      0.56s CPU      0.57s WALL (      84 calls)
     init_vloc    :      0.04s CPU      0.04s WALL (      28 calls)
     init_us_1    :      0.29s CPU      0.30s WALL (      28 calls)

     DYNAMICAL MATRIX:
     dynmat0      :     13.99s CPU     15.06s WALL (      28 calls)
     phqscf       :  16676.44s CPU  17927.96s WALL (      28 calls)
     dynmatrix    :      0.09s CPU      0.11s WALL (      28 calls)

     phqscf       :  16676.44s CPU  17927.96s WALL (      28 calls)
     solve_linter :  16607.16s CPU  17853.36s WALL (     228 calls)
     drhodv       :     68.81s CPU     73.24s WALL (     228 calls)

     dynmat0      :     13.99s CPU     15.06s WALL (      28 calls)
     dynmat_us    :     13.29s CPU     14.34s WALL (      28 calls)
     d2ionq       :      0.11s CPU      0.11s WALL (      28 calls)
     dynmatcc     :      0.50s CPU      0.51s WALL (      28 calls)

     dynmat_us    :     13.29s CPU     14.34s WALL (      28 calls)

     phqscf       :  16676.44s CPU  17927.96s WALL (      28 calls)
     solve_linter :  16607.16s CPU  17853.36s WALL (     228 calls)

     solve_linter :  16607.16s CPU  17853.36s WALL (     228 calls)
     dvqpsi_us    :    419.67s CPU    450.11s WALL (  161082 calls)
     ortho        :     87.30s CPU     94.36s WALL ( 1320020 calls)
     cgsolve      :  12722.48s CPU  13644.48s WALL ( 1320020 calls)
     incdrhoscf   :   1570.36s CPU   1669.80s WALL ( 1320020 calls)
     vpsifft      :   1318.77s CPU   1425.93s WALL ( 1158938 calls)
     dv_of_drho   :      1.21s CPU      1.25s WALL (    1813 calls)
     mix_pot      :      1.56s CPU      2.06s WALL (    1691 calls)
     ef_shift     :      0.05s CPU      0.10s WALL (      35 calls)
     localdos     :      1.34s CPU      1.50s WALL (       6 calls)
     psymdvscf    :      4.79s CPU      4.94s WALL (    1511 calls)

     dvqpsi_us    :    419.67s CPU    450.11s WALL (  161082 calls)
     dvqpsi_us_on :     11.65s CPU     12.48s WALL (  161082 calls)

     cgsolve      :  12722.48s CPU  13644.48s WALL ( 1320020 calls)
     ch_psi       :  12379.68s CPU  13275.71s WALL (12530513 calls)

     ch_psi       :  12379.68s CPU  13275.71s WALL (12530513 calls)
     h_psi        :  12641.10s CPU  13538.70s WALL (13268083 calls)
     last         :    621.42s CPU    665.61s WALL (12530513 calls)

     h_psi        :  12641.10s CPU  13538.70s WALL (13268083 calls)
     add_vuspsi   :    182.67s CPU    196.34s WALL (13268083 calls)

     incdrhoscf   :   1570.36s CPU   1669.80s WALL ( 1320020 calls)


      General routines
     calbec       :    531.44s CPU    569.33s WALL (26622702 calls)
     fft          :      1.87s CPU      2.02s WALL (   10026 calls)
     ffts         :     32.46s CPU     35.06s WALL (  166500 calls)
     fftw         :  14078.66s CPU  15087.86s WALL (******** calls)
     davcio       :    319.43s CPU    393.01s WALL ( 6641831 calls)
     write_rec    :      1.53s CPU      2.79s WALL (    1919 calls)


     PHONON       :      5h 0m CPU      5h22m WALL


   This run was terminated on:  20: 2:29  17Jun2021            

=------------------------------------------------------------------------------=
   JOB DONE.
=------------------------------------------------------------------------------=
Note: The following floating-point exceptions are signalling: IEEE_UNDERFLOW_FLAG IEEE_DENORMAL
Note: The following floating-point exceptions are signalling: IEEE_UNDERFLOW_FLAG IEEE_DENORMAL
