
     Program PWSCF v.6.6 starts on 10Jun2021 at 16:42:36 

     This program is part of the open-source Quantum ESPRESSO suite
     for quantum simulation of materials; please cite
         "P. Giannozzi et al., J. Phys.:Condens. Matter 21 395502 (2009);
         "P. Giannozzi et al., J. Phys.:Condens. Matter 29 465901 (2017);
          URL http://www.quantum-espresso.org", 
     in publications or presentations arising from this work. More details at
     http://www.quantum-espresso.org/quote

     Parallel version (MPI), running on     2 processors

     MPI processes distributed on     1 nodes
     R & G space division:  proc/nbgrp/npool/nimage =       2
     Fft bands division:     nmany     =       1
     Waiting for input...
     Reading input from standard input

     Current dimensions of program PWSCF are:
     Max number of different atomic species (ntypx) = 10
     Max number of k-points (npk) =  40000
     Max angular momentum in pseudopotentials (lmaxx) =  3
     file Nb.pz-spn-kjpaw_psl.1.0.0.UPF: wavefunction(s)  4S 4P 4D renormalized
     file S.pz-n-kjpaw_psl.0.1.UPF: wavefunction(s)  3P renormalized

     Subspace diagonalization in iterative solution of the eigenvalue problem:
     a serial algorithm will be used


     Parallelization info
     --------------------
     sticks:   dense  smooth     PW     G-vecs:    dense   smooth      PW
     Min         579     225     69               184729    46499    7715
     Max         580     226     70               184746    46524    7734
     Sum        1159     451    139               369475    93023   15449



     bravais-lattice index     =            4
     lattice parameter (alat)  =       6.4591  a.u.
     unit-cell volume          =    2731.0606 (a.u.)^3
     number of atoms/cell      =            3
     number of atomic types    =            2
     number of electrons       =        25.00
     number of Kohn-Sham states=           25
     kinetic-energy cutoff     =      40.0000  Ry
     charge density cutoff     =     400.0000  Ry
     convergence threshold     =      1.0E-08
     mixing beta               =       0.7000
     number of iterations used =            8  plain     mixing
     Exchange-correlation= SLA PZ NOGX NOGC
                           (   1   1   0   0   0   0   0)

     celldm(1)=   6.459084  celldm(2)=   0.000000  celldm(3)=  11.702750
     celldm(4)=   0.000000  celldm(5)=   0.000000  celldm(6)=   0.000000

     crystal axes: (cart. coord. in units of alat)
               a(1) = (   1.000000   0.000000   0.000000 )  
               a(2) = (  -0.500000   0.866025   0.000000 )  
               a(3) = (   0.000000   0.000000  11.702750 )  

     reciprocal axes: (cart. coord. in units 2 pi/alat)
               b(1) = (  1.000000  0.577350 -0.000000 )  
               b(2) = (  0.000000  1.154701  0.000000 )  
               b(3) = (  0.000000 -0.000000  0.085450 )  


     PseudoPot. # 1 for Nb read from file:
     ../Nb.pz-spn-kjpaw_psl.1.0.0.UPF
     MD5 check sum: 38c2e04b3cc915696ca8dc9f46a23270
     Pseudo is Projector augmented-wave + core cor, Zval = 13.0
     Generated using "atomic" code by A. Dal Corso v.6.2.2
     Shape of augmentation charge: PSQ
     Using radial grid of 1227 points,  6 beta functions with: 
                l(1) =   0
                l(2) =   0
                l(3) =   1
                l(4) =   1
                l(5) =   2
                l(6) =   2
     Q(r) pseudized with 0 coefficients 


     PseudoPot. # 2 for S  read from file:
     ../S.pz-n-kjpaw_psl.0.1.UPF
     MD5 check sum: c0b1682311cf098e03f7841691d9a679
     Pseudo is Projector augmented-wave + core cor, Zval =  6.0
     Generated using "atomic" code by A. Dal Corso v.5.0.2 svn rev. 9415
     Shape of augmentation charge: PSQ
     Using radial grid of 1151 points,  4 beta functions with: 
                l(1) =   0
                l(2) =   0
                l(3) =   1
                l(4) =   1
     Q(r) pseudized with 0 coefficients 


     atomic species   valence    mass     pseudopotential
        Nb            13.00    92.90600     Nb( 1.00)
        S              6.00    32.06500     S ( 1.00)

     12 Sym. Ops. (no inversion) found ( 6 have fractional translation)


                                    s                        frac. trans.

      isym =  1     identity                                     

 cryst.   s( 1) = (     1          0          0      )
                  (     0          1          0      )
                  (     0          0          1      )

 cart.    s( 1) = (  1.0000000  0.0000000  0.0000000 )
                  (  0.0000000  1.0000000  0.0000000 )
                  (  0.0000000  0.0000000  1.0000000 )


      isym =  2     180 deg rotation - cart. axis [0,1,0]        

 cryst.   s( 2) = (    -1          0          0      )    f =(  0.0000000 )
                  (     1          1          0      )       (  0.0000000 )
                  (     0          0         -1      )       (  0.5000000 )

 cart.    s( 2) = ( -1.0000000  0.0000000  0.0000000 )    f =(  0.0000000 )
                  (  0.0000000  1.0000000  0.0000000 )       (  0.0000000 )
                  (  0.0000000  0.0000000 -1.0000000 )       (  5.8513751 )


      isym =  3     120 deg rotation - cryst. axis [0,0,1]       

 cryst.   s( 3) = (     0          1          0      )
                  (    -1         -1          0      )
                  (     0          0          1      )

 cart.    s( 3) = ( -0.5000000 -0.8660254  0.0000000 )
                  (  0.8660254 -0.5000000  0.0000000 )
                  (  0.0000000  0.0000000  1.0000000 )


      isym =  4     120 deg rotation - cryst. axis [0,0,-1]      

 cryst.   s( 4) = (    -1         -1          0      )
                  (     1          0          0      )
                  (     0          0          1      )

 cart.    s( 4) = ( -0.5000000  0.8660254  0.0000000 )
                  ( -0.8660254 -0.5000000  0.0000000 )
                  (  0.0000000  0.0000000  1.0000000 )


      isym =  5     180 deg rotation - cryst. axis [1,-1,0]      

 cryst.   s( 5) = (     0         -1          0      )    f =(  0.0000000 )
                  (    -1          0          0      )       (  0.0000000 )
                  (     0          0         -1      )       (  0.5000000 )

 cart.    s( 5) = (  0.5000000 -0.8660254  0.0000000 )    f =(  0.0000000 )
                  ( -0.8660254 -0.5000000  0.0000000 )       (  0.0000000 )
                  (  0.0000000  0.0000000 -1.0000000 )       (  5.8513751 )


      isym =  6     180 deg rotation - cryst. axis [2,1,0]       

 cryst.   s( 6) = (     1          1          0      )    f =(  0.0000000 )
                  (     0         -1          0      )       (  0.0000000 )
                  (     0          0         -1      )       (  0.5000000 )

 cart.    s( 6) = (  0.5000000  0.8660254  0.0000000 )    f =( -0.0000000 )
                  (  0.8660254 -0.5000000  0.0000000 )       (  0.0000000 )
                  (  0.0000000  0.0000000 -1.0000000 )       (  5.8513751 )


      isym =  7     inv. 180 deg rotation - cart. axis [0,0,1]   

 cryst.   s( 7) = (     1          0          0      )    f =(  0.0000000 )
                  (     0          1          0      )       (  0.0000000 )
                  (     0          0         -1      )       (  0.5000000 )

 cart.    s( 7) = (  1.0000000  0.0000000  0.0000000 )    f =(  0.0000000 )
                  (  0.0000000  1.0000000  0.0000000 )       (  0.0000000 )
                  (  0.0000000  0.0000000 -1.0000000 )       (  5.8513751 )


      isym =  8     inv. 180 deg rotation - cart. axis [1,0,0]   

 cryst.   s( 8) = (    -1          0          0      )
                  (     1          1          0      )
                  (     0          0          1      )

 cart.    s( 8) = ( -1.0000000  0.0000000  0.0000000 )
                  (  0.0000000  1.0000000  0.0000000 )
                  (  0.0000000  0.0000000  1.0000000 )


      isym =  9     inv.  60 deg rotation - cryst. axis [0,0,1]  

 cryst.   s( 9) = (    -1         -1          0      )    f =(  0.0000000 )
                  (     1          0          0      )       (  0.0000000 )
                  (     0          0         -1      )       (  0.5000000 )

 cart.    s( 9) = ( -0.5000000  0.8660254  0.0000000 )    f =( -0.0000000 )
                  ( -0.8660254 -0.5000000  0.0000000 )       (  0.0000000 )
                  (  0.0000000  0.0000000 -1.0000000 )       (  5.8513751 )


      isym = 10     inv.  60 deg rotation - cryst. axis [0,0,-1] 

 cryst.   s(10) = (     0          1          0      )    f =(  0.0000000 )
                  (    -1         -1          0      )       (  0.0000000 )
                  (     0          0         -1      )       (  0.5000000 )

 cart.    s(10) = ( -0.5000000 -0.8660254  0.0000000 )    f =(  0.0000000 )
                  (  0.8660254 -0.5000000  0.0000000 )       (  0.0000000 )
                  (  0.0000000  0.0000000 -1.0000000 )       (  5.8513751 )


      isym = 11     inv. 180 deg rotation - cryst. axis [0,1,0]  

 cryst.   s(11) = (     1          1          0      )
                  (     0         -1          0      )
                  (     0          0          1      )

 cart.    s(11) = (  0.5000000  0.8660254  0.0000000 )
                  (  0.8660254 -0.5000000  0.0000000 )
                  (  0.0000000  0.0000000  1.0000000 )


      isym = 12     inv. 180 deg rotation - cryst. axis [1,1,0]  

 cryst.   s(12) = (     0         -1          0      )
                  (    -1          0          0      )
                  (     0          0          1      )

 cart.    s(12) = (  0.5000000 -0.8660254  0.0000000 )
                  ( -0.8660254 -0.5000000  0.0000000 )
                  (  0.0000000  0.0000000  1.0000000 )


     point group D_3h (-62m)
     there are  6 classes
     the character table:

       E     2C3   3C2   s_h   2S3   3s_v 
A'_1   1.00  1.00  1.00  1.00  1.00  1.00
A'_2   1.00  1.00 -1.00  1.00  1.00 -1.00
E'     2.00 -1.00  0.00  2.00 -1.00  0.00
A''1   1.00  1.00  1.00 -1.00 -1.00 -1.00
A''2   1.00  1.00 -1.00 -1.00 -1.00  1.00
E''    2.00 -1.00  0.00 -2.00  1.00  0.00

     the symmetry operations in each class and the name of the first element:

     E        1
          identity                                               
     2C3      3    4
          120 deg rotation - cryst. axis [0,0,1]                 
     3C2      2    6    5
          180 deg rotation - cart. axis [0,1,0]                  
     s_h      7
          inv. 180 deg rotation - cart. axis [0,0,1]             
     2S3      9   10
          inv.  60 deg rotation - cryst. axis [0,0,1]            
     3s_v     8   11   12
          inv. 180 deg rotation - cart. axis [1,0,0]             

   Cartesian axes

     site n.     atom                  positions (alat units)
         1           S   tau(   1) = (   0.0000000   0.5773503   4.3089526  )
         2           Nb  tau(   2) = (   0.0000000   0.0000000   2.9256875  )
         3           S   tau(   3) = (   0.0000000   0.5773503   1.5424225  )

   Crystallographic axes

     site n.     atom                  positions (cryst. coord.)
         1           S   tau(   1) = (  0.3333333  0.6666667  0.3682000  )
         2           Nb  tau(   2) = (  0.0000000  0.0000000  0.2500000  )
         3           S   tau(   3) = (  0.3333333  0.6666667  0.1318000  )

     number of k points=    24  Methfessel-Paxton smearing, width (Ry)=  0.0200
                       cart. coord. in units 2pi/alat
        k(    1) = (   0.0000000   0.0000000   0.0000000), wk =   0.0102041
        k(    2) = (   0.0000000   0.0824786   0.0000000), wk =   0.0612245
        k(    3) = (   0.0000000   0.1649572   0.0000000), wk =   0.0612245
        k(    4) = (   0.0000000   0.2474358   0.0000000), wk =   0.0612245
        k(    5) = (   0.0000000   0.3299144   0.0000000), wk =   0.0612245
        k(    6) = (   0.0000000   0.4123930   0.0000000), wk =   0.0612245
        k(    7) = (   0.0000000   0.4948717   0.0000000), wk =   0.0612245
        k(    8) = (   0.0000000  -0.5773503   0.0000000), wk =   0.0306122
        k(    9) = (   0.0714286   0.1237179   0.0000000), wk =   0.0612245
        k(   10) = (   0.0714286   0.2061965   0.0000000), wk =   0.1224490
        k(   11) = (   0.0714286   0.2886751   0.0000000), wk =   0.1224490
        k(   12) = (   0.0714286   0.3711537   0.0000000), wk =   0.1224490
        k(   13) = (   0.0714286   0.4536324   0.0000000), wk =   0.1224490
        k(   14) = (   0.0714286   0.5361110   0.0000000), wk =   0.1224490
        k(   15) = (   0.1428571   0.2474358   0.0000000), wk =   0.0612245
        k(   16) = (   0.1428571   0.3299144   0.0000000), wk =   0.1224490
        k(   17) = (   0.1428571   0.4123930   0.0000000), wk =   0.1224490
        k(   18) = (   0.1428571   0.4948717   0.0000000), wk =   0.1224490
        k(   19) = (   0.1428571   0.5773503   0.0000000), wk =   0.0612245
        k(   20) = (   0.2142857   0.3711537   0.0000000), wk =   0.0612245
        k(   21) = (   0.2142857   0.4536324   0.0000000), wk =   0.1224490
        k(   22) = (   0.2142857   0.5361110   0.0000000), wk =   0.1224490
        k(   23) = (   0.2857143   0.4948717   0.0000000), wk =   0.0612245
        k(   24) = (   0.2857143   0.5773503   0.0000000), wk =   0.0612245

                       cryst. coord.
        k(    1) = (   0.0000000   0.0000000   0.0000000), wk =   0.0102041
        k(    2) = (   0.0000000   0.0714286   0.0000000), wk =   0.0612245
        k(    3) = (   0.0000000   0.1428571   0.0000000), wk =   0.0612245
        k(    4) = (   0.0000000   0.2142857   0.0000000), wk =   0.0612245
        k(    5) = (   0.0000000   0.2857143   0.0000000), wk =   0.0612245
        k(    6) = (   0.0000000   0.3571429   0.0000000), wk =   0.0612245
        k(    7) = (   0.0000000   0.4285714   0.0000000), wk =   0.0612245
        k(    8) = (   0.0000000  -0.5000000   0.0000000), wk =   0.0306122
        k(    9) = (   0.0714286   0.0714286   0.0000000), wk =   0.0612245
        k(   10) = (   0.0714286   0.1428571   0.0000000), wk =   0.1224490
        k(   11) = (   0.0714286   0.2142857   0.0000000), wk =   0.1224490
        k(   12) = (   0.0714286   0.2857143   0.0000000), wk =   0.1224490
        k(   13) = (   0.0714286   0.3571429   0.0000000), wk =   0.1224490
        k(   14) = (   0.0714286   0.4285714   0.0000000), wk =   0.1224490
        k(   15) = (   0.1428571   0.1428571   0.0000000), wk =   0.0612245
        k(   16) = (   0.1428571   0.2142857   0.0000000), wk =   0.1224490
        k(   17) = (   0.1428571   0.2857143   0.0000000), wk =   0.1224490
        k(   18) = (   0.1428571   0.3571429   0.0000000), wk =   0.1224490
        k(   19) = (   0.1428571   0.4285714   0.0000000), wk =   0.0612245
        k(   20) = (   0.2142857   0.2142857   0.0000000), wk =   0.0612245
        k(   21) = (   0.2142857   0.2857143   0.0000000), wk =   0.1224490
        k(   22) = (   0.2142857   0.3571429   0.0000000), wk =   0.1224490
        k(   23) = (   0.2857143   0.2857143   0.0000000), wk =   0.0612245
        k(   24) = (   0.2857143   0.3571429   0.0000000), wk =   0.0612245

     Dense  grid:   369475 G-vectors     FFT dimensions: (  45,  45, 486)

     Smooth grid:    93023 G-vectors     FFT dimensions: (  25,  25, 320)

     Dynamical RAM for                 wfc:       2.23 MB

     Dynamical RAM for     wfc (w. buffer):      55.63 MB

     Dynamical RAM for           str. fact:       5.64 MB

     Dynamical RAM for           local pot:       0.00 MB

     Dynamical RAM for          nlocal pot:       3.03 MB

     Dynamical RAM for                qrad:       3.21 MB

     Dynamical RAM for          rho,v,vnew:      19.72 MB

     Dynamical RAM for               rhoin:       6.57 MB

     Dynamical RAM for            rho*nmix:      45.10 MB

     Dynamical RAM for           G-vectors:      10.93 MB

     Dynamical RAM for          h,s,v(r/c):       0.11 MB

     Dynamical RAM for          <psi|beta>:       0.01 MB

     Dynamical RAM for                 psi:       4.45 MB

     Dynamical RAM for                hpsi:       4.45 MB

     Dynamical RAM for                spsi:       4.45 MB

     Dynamical RAM for      wfcinit/wfcrot:       4.46 MB

     Dynamical RAM for           addusdens:     529.97 MB

     Estimated static dynamical RAM per process >     177.05 MB

     Estimated max dynamical RAM per process >     707.03 MB

     Estimated total dynamical RAM >       1.38 GB

     Initial potential from superposition of free atoms

     starting charge   24.99887, renormalised to   25.00000

     negative rho (up, down):  3.555E-04 0.000E+00
     Starting wfcs are   21 randomized atomic wfcs +    4 random wfcs
     Checking if some PAW data can be deallocated... 
       PAW data deallocated on    1 nodes for type:  1

     total cpu time spent up to now is        9.5 secs

     Self-consistent Calculation

     iteration #  1     ecut=    40.00 Ry     beta= 0.70
     Davidson diagonalization with overlap
     ethr =  1.00E-02,  avg # of iterations =  9.7

     negative rho (up, down):  4.234E-04 0.000E+00

     total cpu time spent up to now is       37.5 secs

     total energy              =    -451.02885484 Ry
     estimated scf accuracy    <       2.31277196 Ry

     iteration #  2     ecut=    40.00 Ry     beta= 0.70
     Davidson diagonalization with overlap
     ethr =  9.25E-03,  avg # of iterations =  5.9

     negative rho (up, down):  7.164E-04 0.000E+00

     total cpu time spent up to now is       68.2 secs

     total energy              =    -447.24322711 Ry
     estimated scf accuracy    <     207.83929603 Ry

     iteration #  3     ecut=    40.00 Ry     beta= 0.70
     Davidson diagonalization with overlap
     ethr =  9.25E-03,  avg # of iterations =  5.8

     negative rho (up, down):  5.370E-04 0.000E+00

     total cpu time spent up to now is       98.1 secs

     total energy              =    -451.94009402 Ry
     estimated scf accuracy    <      24.41928694 Ry

     iteration #  4     ecut=    40.00 Ry     beta= 0.70
     Davidson diagonalization with overlap
     ethr =  9.25E-03,  avg # of iterations =  3.1

     negative rho (up, down):  4.620E-04 0.000E+00

     total cpu time spent up to now is      118.2 secs

     total energy              =    -452.65193068 Ry
     estimated scf accuracy    <      12.43153104 Ry

     iteration #  5     ecut=    40.00 Ry     beta= 0.70
     Davidson diagonalization with overlap
     ethr =  9.25E-03,  avg # of iterations =  1.5

     negative rho (up, down):  4.384E-04 0.000E+00

     total cpu time spent up to now is      136.1 secs

     total energy              =    -453.00013562 Ry
     estimated scf accuracy    <       1.11050792 Ry

     iteration #  6     ecut=    40.00 Ry     beta= 0.70
     Davidson diagonalization with overlap
     ethr =  4.44E-03,  avg # of iterations =  1.6

     negative rho (up, down):  4.404E-04 0.000E+00

     total cpu time spent up to now is      153.9 secs

     total energy              =    -452.93742429 Ry
     estimated scf accuracy    <       1.43776875 Ry

     iteration #  7     ecut=    40.00 Ry     beta= 0.70
     Davidson diagonalization with overlap
     ethr =  4.44E-03,  avg # of iterations =  1.4

     negative rho (up, down):  4.426E-04 0.000E+00

     total cpu time spent up to now is      171.7 secs

     total energy              =    -452.98203397 Ry
     estimated scf accuracy    <       0.37915729 Ry

     iteration #  8     ecut=    40.00 Ry     beta= 0.70
     Davidson diagonalization with overlap
     ethr =  1.52E-03,  avg # of iterations =  2.6

     negative rho (up, down):  4.421E-04 0.000E+00

     total cpu time spent up to now is      190.0 secs

     total energy              =    -452.98230729 Ry
     estimated scf accuracy    <       0.27812520 Ry

     iteration #  9     ecut=    40.00 Ry     beta= 0.70
     Davidson diagonalization with overlap
     ethr =  1.11E-03,  avg # of iterations =  1.1

     negative rho (up, down):  4.413E-04 0.000E+00

     total cpu time spent up to now is      207.5 secs

     total energy              =    -452.98373288 Ry
     estimated scf accuracy    <       0.25369739 Ry

     iteration # 10     ecut=    40.00 Ry     beta= 0.70
     Davidson diagonalization with overlap
     ethr =  1.01E-03,  avg # of iterations =  1.0

     negative rho (up, down):  4.474E-04 0.000E+00

     total cpu time spent up to now is      224.9 secs

     total energy              =    -452.98220787 Ry
     estimated scf accuracy    <       0.29734867 Ry

     iteration # 11     ecut=    40.00 Ry     beta= 0.70
     Davidson diagonalization with overlap
     ethr =  1.01E-03,  avg # of iterations =  1.0

     negative rho (up, down):  4.667E-04 0.000E+00

     total cpu time spent up to now is      242.3 secs

     total energy              =    -452.96145076 Ry
     estimated scf accuracy    <       0.53996441 Ry

     iteration # 12     ecut=    40.00 Ry     beta= 0.70
     Davidson diagonalization with overlap
     ethr =  1.01E-03,  avg # of iterations =  1.0

     negative rho (up, down):  4.858E-04 0.000E+00

     total cpu time spent up to now is      259.8 secs

     total energy              =    -452.97880299 Ry
     estimated scf accuracy    <       0.01439404 Ry

     iteration # 13     ecut=    40.00 Ry     beta= 0.70
     Davidson diagonalization with overlap
     ethr =  5.76E-05,  avg # of iterations =  7.6

     negative rho (up, down):  4.671E-04 0.000E+00

     total cpu time spent up to now is      282.7 secs

     total energy              =    -452.96180082 Ry
     estimated scf accuracy    <       0.74913779 Ry

     iteration # 14     ecut=    40.00 Ry     beta= 0.70
     Davidson diagonalization with overlap
     ethr =  5.76E-05,  avg # of iterations =  2.5

     negative rho (up, down):  4.664E-04 0.000E+00

     total cpu time spent up to now is      301.7 secs

     total energy              =    -452.97155933 Ry
     estimated scf accuracy    <       0.01168146 Ry

     iteration # 15     ecut=    40.00 Ry     beta= 0.70
     Davidson diagonalization with overlap
     ethr =  4.67E-05,  avg # of iterations =  1.0

     negative rho (up, down):  4.669E-04 0.000E+00

     total cpu time spent up to now is      319.1 secs

     total energy              =    -452.97233097 Ry
     estimated scf accuracy    <       0.00377342 Ry

     iteration # 16     ecut=    40.00 Ry     beta= 0.70
     Davidson diagonalization with overlap
     ethr =  1.51E-05,  avg # of iterations =  2.0

     negative rho (up, down):  4.674E-04 0.000E+00

     total cpu time spent up to now is      337.1 secs

     total energy              =    -452.97190199 Ry
     estimated scf accuracy    <       0.01787698 Ry

     iteration # 17     ecut=    40.00 Ry     beta= 0.70
     Davidson diagonalization with overlap
     ethr =  1.51E-05,  avg # of iterations =  1.0

     negative rho (up, down):  4.678E-04 0.000E+00

     total cpu time spent up to now is      354.6 secs

     total energy              =    -452.97201828 Ry
     estimated scf accuracy    <       0.01503689 Ry

     iteration # 18     ecut=    40.00 Ry     beta= 0.70
     Davidson diagonalization with overlap
     ethr =  1.51E-05,  avg # of iterations =  1.0

     negative rho (up, down):  4.686E-04 0.000E+00

     total cpu time spent up to now is      371.9 secs

     total energy              =    -452.97185987 Ry
     estimated scf accuracy    <       0.01085906 Ry

     iteration # 19     ecut=    40.00 Ry     beta= 0.70
     Davidson diagonalization with overlap
     ethr =  1.51E-05,  avg # of iterations =  1.0

     negative rho (up, down):  4.684E-04 0.000E+00

     total cpu time spent up to now is      389.3 secs

     total energy              =    -452.97173305 Ry
     estimated scf accuracy    <       0.00417450 Ry

     iteration # 20     ecut=    40.00 Ry     beta= 0.70
     Davidson diagonalization with overlap
     ethr =  1.51E-05,  avg # of iterations =  1.0

     negative rho (up, down):  4.684E-04 0.000E+00

     total cpu time spent up to now is      406.8 secs

     total energy              =    -452.97177949 Ry
     estimated scf accuracy    <       0.00012474 Ry

     iteration # 21     ecut=    40.00 Ry     beta= 0.70
     Davidson diagonalization with overlap
     ethr =  4.99E-07,  avg # of iterations =  5.2

     negative rho (up, down):  4.685E-04 0.000E+00

     total cpu time spent up to now is      426.8 secs

     total energy              =    -452.97178353 Ry
     estimated scf accuracy    <       0.00000067 Ry

     iteration # 22     ecut=    40.00 Ry     beta= 0.70
     Davidson diagonalization with overlap
     ethr =  2.70E-09,  avg # of iterations =  2.1

     negative rho (up, down):  4.685E-04 0.000E+00

     total cpu time spent up to now is      446.5 secs

     total energy              =    -452.97178365 Ry
     estimated scf accuracy    <       0.00000024 Ry

     iteration # 23     ecut=    40.00 Ry     beta= 0.70
     Davidson diagonalization with overlap
     ethr =  9.73E-10,  avg # of iterations =  1.0

     negative rho (up, down):  4.685E-04 0.000E+00

     total cpu time spent up to now is      463.9 secs

     End of self-consistent calculation

          k = 0.0000 0.0000 0.0000 ( 11841 PWs)   bands (ev):

   -60.2210 -36.5530 -35.9884 -35.9884 -16.1423 -16.1422  -8.0324  -5.9260
    -5.9135  -4.8428  -4.3612  -4.3612  -3.4510  -3.4510  -3.4508  -3.4508
    -3.2739  -3.2739  -3.0454   1.4032   1.8371   2.3417   2.5731   2.5746
     3.1029

     occupation numbers 
     1.0000   1.0000   1.0000   1.0000   1.0000   1.0000   1.0000   1.0000
     1.0000   0.9368  -0.0339  -0.0339  -0.0000  -0.0000  -0.0000  -0.0000
    -0.0000  -0.0000  -0.0000  -0.0000  -0.0000  -0.0000  -0.0000  -0.0000
    -0.0000

          k = 0.0000 0.0825 0.0000 ( 11775 PWs)   bands (ev):

   -60.2200 -36.5516 -35.9995 -35.9911 -16.1020 -16.1020  -7.9121  -5.8784
    -5.8694  -4.8100  -4.4352  -4.2755  -3.7275  -3.6916  -3.6697  -3.4979
    -3.4977  -3.2956  -2.5749   1.5043   1.9473   2.4259   2.6457   2.6668
     3.1757

     occupation numbers 
     1.0000   1.0000   1.0000   1.0000   1.0000   1.0000   1.0000   1.0000
     1.0000   0.8802  -0.0036  -0.0300  -0.0000  -0.0000  -0.0000  -0.0000
    -0.0000  -0.0000  -0.0000  -0.0000  -0.0000  -0.0000  -0.0000  -0.0000
    -0.0000

          k = 0.0000 0.1650 0.0000 ( 11733 PWs)   bands (ev):

   -60.2171 -36.5479 -36.0304 -35.9986 -15.9859 -15.9859  -7.5663  -5.7429
    -5.7414  -4.7265  -4.6119  -4.3219  -4.2970  -4.1621  -4.0254  -3.6249
    -3.6245  -3.3555  -1.9760   1.7701   2.2411   2.6693   2.8515   2.9397
     3.3942

     occupation numbers 
     1.0000   1.0000   1.0000   1.0000   1.0000   1.0000   1.0000   1.0000
     1.0000   0.6749   0.3271  -0.0351  -0.0329  -0.0122  -0.0021  -0.0000
    -0.0000  -0.0000  -0.0000  -0.0000  -0.0000  -0.0000  -0.0000  -0.0000
    -0.0000

          k = 0.0000 0.2474 0.0000 ( 11715 PWs)   bands (ev):

   -60.2129 -36.5424 -36.0748 -36.0095 -15.8083 -15.8082  -7.0551  -5.5553
    -5.5374  -5.0894  -5.0866  -4.7996  -4.5788  -4.5494  -3.7978  -3.7976
    -3.6337  -3.4404  -1.3448   2.1477   2.6667   3.0066   3.2107   3.3800
     3.7665

     occupation numbers 
     1.0000   1.0000   1.0000   1.0000   1.0000   1.0000   1.0000   1.0000
     1.0000   1.0256   1.0261   0.8592   0.2362   0.1653  -0.0000  -0.0000
    -0.0000  -0.0000  -0.0000  -0.0000  -0.0000  -0.0000  -0.0000  -0.0000
    -0.0000

          k = 0.0000 0.3299 0.0000 ( 11721 PWs)   bands (ev):

   -60.2083 -36.5364 -36.1238 -36.0216 -15.5949 -15.5948  -6.5542  -5.8648
    -5.8620  -5.3474  -5.3035  -4.8811  -4.7297  -4.3869  -3.9772  -3.9768
    -3.5320  -3.1456  -0.6903   2.5844   3.1565   3.2787   3.7843   3.9741
     4.1872

     occupation numbers 
     1.0000   1.0000   1.0000   1.0000   1.0000   1.0000   1.0000   1.0000
     1.0000   1.0012   1.0024   0.9847   0.6839  -0.0285  -0.0010  -0.0010
    -0.0000  -0.0000  -0.0000  -0.0000  -0.0000  -0.0000  -0.0000  -0.0000
    -0.0000

          k = 0.0000 0.4124 0.0000 ( 11651 PWs)   bands (ev):

   -60.2041 -36.5309 -36.1675 -36.0324 -15.3848 -15.3847  -6.5199  -6.5135
    -6.3247  -5.3142  -5.0627  -4.9290  -4.2664  -4.1455  -4.1292  -4.1288
    -3.6124  -2.6384  -0.0392   2.5041   2.9966   3.4356   3.6042   4.0195
     4.3451

     occupation numbers 
     1.0000   1.0000   1.0000   1.0000   1.0000   1.0000   1.0000   1.0000
     1.0000   1.0020   1.0299   1.0199  -0.0286  -0.0102  -0.0084  -0.0084
    -0.0000  -0.0000  -0.0000  -0.0000  -0.0000  -0.0000  -0.0000  -0.0000
    -0.0000

          k = 0.0000 0.4949 0.0000 ( 11616 PWs)   bands (ev):

   -60.2012 -36.5271 -36.1975 -36.0399 -15.2272 -15.2272  -6.9511  -6.9496
    -6.3267  -5.4179  -4.8564  -4.7988  -4.2297  -4.2293  -4.1333  -3.6670
    -3.3250  -2.2333   0.5211   1.1482   3.0906   3.2426   3.5934   3.7826
     4.5127

     occupation numbers 
     1.0000   1.0000   1.0000   1.0000   1.0000   1.0000   1.0000   1.0000
     1.0000   1.0003   0.9560   0.8575  -0.0224  -0.0223  -0.0088  -0.0000
    -0.0000  -0.0000  -0.0000  -0.0000  -0.0000  -0.0000  -0.0000  -0.0000
    -0.0000

          k = 0.0000-0.5774 0.0000 ( 11566 PWs)   bands (ev):

   -60.2001 -36.5257 -36.2082 -36.0425 -15.1681 -15.1681  -7.1049  -7.1037
    -6.3447  -5.4620  -4.7771  -4.7386  -4.2647  -4.2642  -4.0933  -3.6862
    -2.8278  -2.0742   0.4810   0.7710   3.0772   3.0837   3.5494   3.6955
     4.4390

     occupation numbers 
     1.0000   1.0000   1.0000   1.0000   1.0000   1.0000   1.0000   1.0000
     1.0000   1.0001   0.8088   0.7090  -0.0283  -0.0282  -0.0054  -0.0000
    -0.0000  -0.0000  -0.0000  -0.0000  -0.0000  -0.0000  -0.0000  -0.0000
    -0.0000

          k = 0.0714 0.1237 0.0000 ( 11755 PWs)   bands (ev):

   -60.2180 -36.5491 -36.0201 -35.9966 -16.0239 -16.0238  -7.6781  -5.7859
    -5.7840  -4.7487  -4.5708  -4.1303  -4.1015  -4.0996  -4.0287  -3.5989
    -3.5988  -3.3422  -2.1374   1.6869   2.1484   2.5902   2.7837   2.8499
     3.3208

     occupation numbers 
     1.0000   1.0000   1.0000   1.0000   1.0000   1.0000   1.0000   1.0000
     1.0000   0.7367   0.2157  -0.0085  -0.0060  -0.0059  -0.0022  -0.0000
    -0.0000  -0.0000  -0.0000  -0.0000  -0.0000  -0.0000  -0.0000  -0.0000
    -0.0000

          k = 0.0714 0.2062 0.0000 ( 11738 PWs)   bands (ev):

   -60.2145 -36.5445 -36.0567 -36.0069 -15.8767 -15.8767  -7.2397  -5.6258
    -5.6125  -4.7990  -4.7744  -4.7708  -4.5959  -4.4311  -3.7840  -3.7831
    -3.7586  -3.4297  -1.5614   2.0086   2.5076   2.8868   3.0609   3.2065
     3.6176

     occupation numbers 
     1.0000   1.0000   1.0000   1.0000   1.0000   1.0000   1.0000   1.0000
     1.0000   0.8578   0.8023   0.7938   0.2818  -0.0066  -0.0000  -0.0000
    -0.0000  -0.0000  -0.0000  -0.0000  -0.0000  -0.0000  -0.0000  -0.0000
    -0.0000

          k = 0.0714 0.2887 0.0000 ( 11720 PWs)   bands (ev):

   -60.2101 -36.5387 -36.1019 -36.0198 -15.6804 -15.6804  -6.6926  -5.5304
    -5.5238  -5.4062  -5.3780  -4.8990  -4.7616  -4.4608  -3.9978  -3.9974
    -3.5373  -3.2865  -0.9284   2.4242   2.9771   3.1978   3.5353   3.7275
     4.0702

     occupation numbers 
     1.0000   1.0000   1.0000   1.0000   1.0000   1.0000   1.0000   1.0000
     1.0000   1.0004   1.0007   1.0009   0.7708   0.0195  -0.0013  -0.0013
    -0.0000  -0.0000  -0.0000  -0.0000  -0.0000  -0.0000  -0.0000  -0.0000
    -0.0000

          k = 0.0714 0.3712 0.0000 ( 11673 PWs)   bands (ev):

   -60.2057 -36.5329 -36.1468 -36.0327 -15.4669 -15.4669  -6.3070  -6.2035
    -6.1882  -5.2786  -5.1649  -4.9363  -4.6474  -4.3004  -4.1968  -4.1953
    -3.6430  -2.7340  -0.2688   2.8349   3.2443   3.4252   3.6725   4.2179
     4.3149

     occupation numbers 
     1.0000   1.0000   1.0000   1.0000   1.0000   1.0000   1.0000   1.0000
     1.0000   1.0034   1.0136   1.0233   0.4334  -0.0333  -0.0171  -0.0168
    -0.0000  -0.0000  -0.0000  -0.0000  -0.0000  -0.0000  -0.0000  -0.0000
    -0.0000

          k = 0.0714 0.4536 0.0000 ( 11621 PWs)   bands (ev):

   -60.2021 -36.5283 -36.1825 -36.0430 -15.2805 -15.2805  -6.7349  -6.7329
    -6.2142  -5.3441  -4.9306  -4.8469  -4.3475  -4.3466  -4.1707  -3.9671
    -3.7262  -2.1781   0.3636   1.7933   3.1293   3.4580   3.7470   4.0806
     4.5243

     occupation numbers 
     1.0000   1.0000   1.0000   1.0000   1.0000   1.0000   1.0000   1.0000
     1.0000   1.0013   1.0207   0.9429  -0.0351  -0.0352  -0.0133  -0.0008
    -0.0000  -0.0000  -0.0000  -0.0000  -0.0000  -0.0000  -0.0000  -0.0000
    -0.0000

          k = 0.0714 0.5361 0.0000 ( 11594 PWs)   bands (ev):

   -60.2001 -36.5257 -36.2022 -36.0487 -15.1700 -15.1700  -7.0237  -7.0226
    -6.2437  -5.4193  -4.7828  -4.7404  -4.4267  -4.4264  -4.0941  -3.7718
    -3.3194  -1.7210   0.6456   0.8181   3.1446   3.2156   3.7841   3.9193
     4.5727

     occupation numbers 
     1.0000   1.0000   1.0000   1.0000   1.0000   1.0000   1.0000   1.0000
     1.0000   1.0003   0.8222   0.7141  -0.0096  -0.0098  -0.0055  -0.0000
    -0.0000  -0.0000  -0.0000  -0.0000  -0.0000  -0.0000  -0.0000  -0.0000
    -0.0000

          k = 0.1429 0.2474 0.0000 ( 11733 PWs)   bands (ev):

   -60.2107 -36.5395 -36.0921 -36.0212 -15.7103 -15.7103  -6.7339  -5.4653
    -5.4276  -5.3298  -5.3281  -4.9889  -4.6989  -4.4888  -4.0662  -4.0660
    -3.5644  -3.3078  -1.0014   2.3719   2.9152   3.1625   3.4535   3.6452
     3.9999

     occupation numbers 
     1.0000   1.0000   1.0000   1.0000   1.0000   1.0000   1.0000   1.0001
     1.0003   1.0016   1.0016   1.0351   0.5927   0.0542  -0.0038  -0.0038
    -0.0000  -0.0000  -0.0000  -0.0000  -0.0000  -0.0000  -0.0000  -0.0000
    -0.0000

          k = 0.1429 0.3299 0.0000 ( 11690 PWs)   bands (ev):

   -60.2065 -36.5341 -36.1301 -36.0381 -15.5119 -15.5119  -6.1785  -5.9349
    -5.9243  -5.2753  -5.2047  -5.0630  -4.8830  -4.3847  -4.3795  -4.3340
    -3.7247  -2.7184  -0.3612   2.7993   3.3896   3.4242   4.0424   4.2115
     4.2394

     occupation numbers 
     1.0000   1.0000   1.0000   1.0000   1.0000   1.0000   1.0000   1.0000
     1.0000   1.0036   1.0088   1.0299   0.9866  -0.0291  -0.0305  -0.0355
    -0.0000  -0.0000  -0.0000  -0.0000  -0.0000  -0.0000  -0.0000  -0.0000
    -0.0000

          k = 0.1429 0.4124 0.0000 ( 11650 PWs)   bands (ev):

   -60.2028 -36.5292 -36.1636 -36.0538 -15.3182 -15.3182  -6.4511  -6.4485
    -5.9129  -5.2478  -5.0025  -4.8640  -4.6860  -4.6432  -4.6427  -4.1964
    -3.8731  -2.0509   0.3093   2.5117   3.1813   3.6811   3.8218   4.5911
     4.8168

     occupation numbers 
     1.0000   1.0000   1.0000   1.0000   1.0000   1.0000   1.0000   1.0000
     1.0000   1.0052   1.0355   0.9657   0.5532   0.4204   0.4189  -0.0170
    -0.0001  -0.0000  -0.0000  -0.0000  -0.0000  -0.0000  -0.0000  -0.0000
    -0.0000

          k = 0.1429 0.4949 0.0000 ( 11610 PWs)   bands (ev):

   -60.2001 -36.5257 -36.1866 -36.0647 -15.1742 -15.1742  -6.8044  -6.8032
    -5.9474  -5.3083  -4.8206  -4.8140  -4.7925  -4.7425  -4.1066  -4.0618
    -3.9769  -1.3685   0.9151   1.1216   3.2922   3.5385   4.1968   4.4162
     4.4380

     occupation numbers 
     1.0000   1.0000   1.0000   1.0000   1.0000   1.0000   1.0000   1.0000
     1.0000   1.0022   0.9001   0.8879   0.8441   0.7199  -0.0064  -0.0035
    -0.0010  -0.0000  -0.0000  -0.0000  -0.0000  -0.0000  -0.0000  -0.0000
    -0.0000

          k = 0.1429 0.5774 0.0000 ( 11608 PWs)   bands (ev):

   -60.1992 -36.5245 -36.1948 -36.0686 -15.1206 -15.1206  -6.9312  -6.9303
    -5.9779  -5.3345  -4.8747  -4.8726  -4.7236  -4.6893  -4.0623  -4.0140
    -3.7620  -0.9078   0.3625   1.2008   3.3045   3.3650   4.2097   4.3296
     4.3364

     occupation numbers 
     1.0000   1.0000   1.0000   1.0000   1.0000   1.0000   1.0000   1.0000
     1.0000   1.0015   0.9781   0.9757   0.6665   0.5634  -0.0036  -0.0017
    -0.0000  -0.0000  -0.0000  -0.0000  -0.0000  -0.0000  -0.0000  -0.0000
    -0.0000

          k = 0.2143 0.3712 0.0000 ( 11637 PWs)   bands (ev):

   -60.2030 -36.5295 -36.1539 -36.0606 -15.3318 -15.3318  -6.2945  -6.2917
    -5.5560  -5.2671  -5.2045  -4.9496  -4.8603  -4.8201  -4.8168  -4.2068
    -3.9547  -2.0025   0.2992   2.9759   3.1986   3.7583   3.7742   4.4788
     4.7661

     occupation numbers 
     1.0000   1.0000   1.0000   1.0000   1.0000   1.0000   1.0000   1.0000
     1.0000   1.0040   1.0088   1.0281   0.9611   0.8991   0.8931  -0.0186
    -0.0007  -0.0000  -0.0000  -0.0000  -0.0000  -0.0000  -0.0000  -0.0000
    -0.0000

          k = 0.2143 0.4536 0.0000 ( 11609 PWs)   bands (ev):

   -60.2001 -36.5257 -36.1702 -36.0815 -15.1776 -15.1776  -6.5576  -6.5564
    -5.4840  -5.2095  -5.1872  -5.1706  -4.8918  -4.7390  -4.7041  -4.1667
    -4.0976  -1.2156   0.9845   1.7173   3.2994   3.7022   3.8951   4.4099
     4.7900

     occupation numbers 
     1.0000   1.0000   1.0000   1.0000   1.0000   1.0000   1.0000   1.0000
     1.0001   1.0083   1.0107   1.0128   0.9948   0.7102   0.6086  -0.0127
    -0.0057  -0.0000  -0.0000  -0.0000  -0.0000  -0.0000  -0.0000  -0.0000
    -0.0000

          k = 0.2143 0.5361 0.0000 ( 11648 PWs)   bands (ev):

   -60.1986 -36.5237 -36.1780 -36.0942 -15.0877 -15.0877  -6.7006  -6.6998
    -5.5647  -5.3919  -5.3902  -5.1806  -4.6956  -4.6574  -4.3211  -4.2957
    -4.0405  -0.4138   0.5865   1.5301   3.0422   3.6718   3.6808   4.6533
     4.8209

     occupation numbers 
     1.0000   1.0000   1.0000   1.0000   1.0000   1.0000   1.0000   1.0000
     1.0000   1.0006   1.0006   1.0115   0.5825   0.4645  -0.0350  -0.0328
    -0.0026  -0.0000  -0.0000  -0.0000  -0.0000  -0.0000  -0.0000  -0.0000
    -0.0000

          k = 0.2857 0.4949 0.0000 ( 11614 PWs)   bands (ev):

   -60.1983 -36.5234 -36.1657 -36.1096 -15.0762 -15.0762  -6.5181  -6.5174
    -5.6802  -5.6801  -5.1879  -5.0796  -4.8133  -4.6502  -4.6239  -4.4451
    -4.0339  -0.3598   1.0351   1.6590   2.4447   3.8096   4.0311   4.4740
     5.0258

     occupation numbers 
     1.0000   1.0000   1.0000   1.0000   1.0000   1.0000   1.0000   1.0000
     1.0000   1.0000   1.0107   1.0272   0.8866   0.4419   0.3621   0.0044
    -0.0024  -0.0000  -0.0000  -0.0000  -0.0000  -0.0000  -0.0000  -0.0000
    -0.0000

          k = 0.2857 0.5774 0.0000 ( 11644 PWs)   bands (ev):

   -60.1977 -36.5225 -36.1585 -36.1254 -15.0392 -15.0392  -6.4319  -6.4314
    -5.9281  -5.9278  -5.1370  -4.9809  -4.7175  -4.6792  -4.5753  -4.5411
    -4.0160   0.1639   0.7065   1.9197   2.0245   3.7786   4.0685   4.6424
     4.7654

     occupation numbers 
     1.0000   1.0000   1.0000   1.0000   1.0000   1.0000   1.0000   1.0000
     1.0000   1.0000   1.0177   1.0344   0.6486   0.5320   0.2273   0.1471
    -0.0018  -0.0000  -0.0000  -0.0000  -0.0000  -0.0000  -0.0000  -0.0000
    -0.0000

     the Fermi energy is    -4.6689 ev

!    total energy              =    -452.97178366 Ry

     total all-electron energy =     -9223.176295 Ry
     estimated scf accuracy    <          3.7E-09 Ry
     smearing contrib. (-TS)   =      -0.00274933 Ry
     internal energy E=F+TS    =    -452.96903434 Ry

     The total energy is F=E-TS. E is the sum of the following terms:
     one-electron contribution =   -1481.46909195 Ry
     hartree contribution      =     740.16631540 Ry
     xc contribution           =     -31.35693454 Ry
     ewald contribution        =     613.75036080 Ry
     one-center paw contrib.   =    -294.05968406 Ry
      -> PAW hartree energy AE =      81.88455962 Ry
      -> PAW hartree energy PS =     -81.39921293 Ry
      -> PAW xc energy AE      =    -275.72220223 Ry
      -> PAW xc energy PS      =      22.84879107 Ry
      -> total E_H with PAW    =     740.65166209 Ry
      -> total E_XC with PAW   =    -284.23034570 Ry

     convergence has been achieved in  23 iterations

     Writing output data file ./tmp/NbS2.save/

     init_run     :      8.10s CPU      8.46s WALL (       1 calls)
     electrons    :    438.86s CPU    454.47s WALL (       1 calls)

     Called by init_run:
     wfcinit      :      5.45s CPU      5.51s WALL (       1 calls)
     wfcinit:atom :      0.05s CPU      0.05s WALL (      24 calls)
     wfcinit:wfcr :      5.28s CPU      5.34s WALL (      24 calls)
     potinit      :      0.65s CPU      0.69s WALL (       1 calls)
     hinit0       :      0.97s CPU      0.99s WALL (       1 calls)

     Called by electrons:
     c_bands      :    317.00s CPU    319.84s WALL (      23 calls)
     sum_band     :     94.19s CPU    101.54s WALL (      23 calls)
     v_of_rho     :      2.01s CPU      2.05s WALL (      24 calls)
     v_h          :      1.11s CPU      1.14s WALL (      24 calls)
     v_xc         :      0.90s CPU      0.91s WALL (      24 calls)
     newd         :     21.57s CPU     27.03s WALL (      24 calls)
     PAW_pot      :      1.27s CPU      1.28s WALL (      24 calls)
     mix_rho      :      2.46s CPU      2.49s WALL (      23 calls)

     Called by c_bands:
     init_us_2    :      2.68s CPU      2.73s WALL (    1128 calls)
     cegterg      :    311.72s CPU    314.42s WALL (     552 calls)

     Called by sum_band:
     sum_band:wei :      0.02s CPU      0.02s WALL (      23 calls)
     sum_band:loo :     59.58s CPU     60.13s WALL (      23 calls)
     sum_band:buf :      0.63s CPU      0.63s WALL (     552 calls)
     sum_band:ini :      1.29s CPU      1.30s WALL (     552 calls)
     sum_band:cal :      6.42s CPU      6.43s WALL (     552 calls)
     sum_band:bec :      0.02s CPU      0.02s WALL (     552 calls)
     addusdens    :     32.75s CPU     39.45s WALL (      23 calls)
     addusd:skk   :      0.05s CPU      0.07s WALL (      46 calls)
     addusd:dgemm :      8.27s CPU     13.70s WALL (      46 calls)
     addusd:qvan2 :     22.82s CPU     22.83s WALL (      46 calls)

     Called by *egterg:
     cdiaghg      :      1.58s CPU      1.59s WALL (    2017 calls)
     cegterg:over :     19.96s CPU     19.99s WALL (    1465 calls)
     cegterg:upda :     11.14s CPU     11.19s WALL (    1465 calls)
     cegterg:last :     25.70s CPU     25.71s WALL (     866 calls)
     h_psi        :    232.68s CPU    235.26s WALL (    2041 calls)
     s_psi        :     14.23s CPU     14.28s WALL (    2041 calls)
     g_psi        :      0.51s CPU      0.52s WALL (    1465 calls)

     Called by h_psi:
     h_psi:calbec :     15.27s CPU     15.35s WALL (    2041 calls)
     vloc_psi     :    202.79s CPU    205.25s WALL (    2041 calls)
     add_vuspsi   :     13.24s CPU     13.27s WALL (    2041 calls)

     General routines
     calbec       :     21.67s CPU     21.77s WALL (    2593 calls)
     fft          :      5.11s CPU      5.30s WALL (     142 calls)
     ffts         :      0.29s CPU      0.29s WALL (      47 calls)
     fftw         :    210.99s CPU    213.45s WALL (   77884 calls)
     interpolate  :      1.07s CPU      1.11s WALL (      24 calls)

     Parallel routines
     fft_scatt_xy :     33.63s CPU     33.96s WALL (   78073 calls)
     fft_scatt_yz :     17.29s CPU     17.68s WALL (   78073 calls)

     PAW routines
     PAW_pot      :      1.27s CPU      1.28s WALL (      24 calls)
     PAW_symme    :      0.01s CPU      0.01s WALL (      47 calls)

     PWSCF        :   7m28.09s CPU   7m45.32s WALL


   This run was terminated on:  16:50:22  10Jun2021            

=------------------------------------------------------------------------------=
   JOB DONE.
=------------------------------------------------------------------------------=
