
     Program PWSCF v.6.6 starts on 10Jun2021 at 16: 9:57 

     This program is part of the open-source Quantum ESPRESSO suite
     for quantum simulation of materials; please cite
         "P. Giannozzi et al., J. Phys.:Condens. Matter 21 395502 (2009);
         "P. Giannozzi et al., J. Phys.:Condens. Matter 29 465901 (2017);
          URL http://www.quantum-espresso.org", 
     in publications or presentations arising from this work. More details at
     http://www.quantum-espresso.org/quote

     Parallel version (MPI), running on     2 processors

     MPI processes distributed on     1 nodes
     R & G space division:  proc/nbgrp/npool/nimage =       2
     Fft bands division:     nmany     =       1
     Waiting for input...
     Reading input from standard input

     Current dimensions of program PWSCF are:
     Max number of different atomic species (ntypx) = 10
     Max number of k-points (npk) =  40000
     Max angular momentum in pseudopotentials (lmaxx) =  3
     file Nb.pz-spn-kjpaw_psl.1.0.0.UPF: wavefunction(s)  4S 4P 4D renormalized
     file S.pz-n-kjpaw_psl.0.1.UPF: wavefunction(s)  3P renormalized

     Subspace diagonalization in iterative solution of the eigenvalue problem:
     a serial algorithm will be used


     Parallelization info
     --------------------
     sticks:   dense  smooth     PW     G-vecs:    dense   smooth      PW
     Min         579     225     69               184729    46499    7669
     Max         580     226     70               184746    46524    7684
     Sum        1159     451    139               369475    93023   15353



     bravais-lattice index     =            4
     lattice parameter (alat)  =       6.4591  a.u.
     unit-cell volume          =    2731.0606 (a.u.)^3
     number of atoms/cell      =            3
     number of atomic types    =            2
     number of electrons       =        25.00
     number of Kohn-Sham states=           25
     kinetic-energy cutoff     =      40.0000  Ry
     charge density cutoff     =     400.0000  Ry
     convergence threshold     =      1.0E-08
     mixing beta               =       0.7000
     number of iterations used =            8  plain     mixing
     Exchange-correlation= SLA PZ NOGX NOGC
                           (   1   1   0   0   0   0   0)

     celldm(1)=   6.459084  celldm(2)=   0.000000  celldm(3)=  11.702750
     celldm(4)=   0.000000  celldm(5)=   0.000000  celldm(6)=   0.000000

     crystal axes: (cart. coord. in units of alat)
               a(1) = (   1.000000   0.000000   0.000000 )  
               a(2) = (  -0.500000   0.866025   0.000000 )  
               a(3) = (   0.000000   0.000000  11.702750 )  

     reciprocal axes: (cart. coord. in units 2 pi/alat)
               b(1) = (  1.000000  0.577350 -0.000000 )  
               b(2) = (  0.000000  1.154701  0.000000 )  
               b(3) = (  0.000000 -0.000000  0.085450 )  


     PseudoPot. # 1 for Nb read from file:
     ../Nb.pz-spn-kjpaw_psl.1.0.0.UPF
     MD5 check sum: 38c2e04b3cc915696ca8dc9f46a23270
     Pseudo is Projector augmented-wave + core cor, Zval = 13.0
     Generated using "atomic" code by A. Dal Corso v.6.2.2
     Shape of augmentation charge: PSQ
     Using radial grid of 1227 points,  6 beta functions with: 
                l(1) =   0
                l(2) =   0
                l(3) =   1
                l(4) =   1
                l(5) =   2
                l(6) =   2
     Q(r) pseudized with 0 coefficients 


     PseudoPot. # 2 for S  read from file:
     ../S.pz-n-kjpaw_psl.0.1.UPF
     MD5 check sum: c0b1682311cf098e03f7841691d9a679
     Pseudo is Projector augmented-wave + core cor, Zval =  6.0
     Generated using "atomic" code by A. Dal Corso v.5.0.2 svn rev. 9415
     Shape of augmentation charge: PSQ
     Using radial grid of 1151 points,  4 beta functions with: 
                l(1) =   0
                l(2) =   0
                l(3) =   1
                l(4) =   1
     Q(r) pseudized with 0 coefficients 


     atomic species   valence    mass     pseudopotential
        Nb            13.00    92.90600     Nb( 1.00)
        S              6.00    32.06500     S ( 1.00)

     12 Sym. Ops. (no inversion) found ( 6 have fractional translation)


                                    s                        frac. trans.

      isym =  1     identity                                     

 cryst.   s( 1) = (     1          0          0      )
                  (     0          1          0      )
                  (     0          0          1      )

 cart.    s( 1) = (  1.0000000  0.0000000  0.0000000 )
                  (  0.0000000  1.0000000  0.0000000 )
                  (  0.0000000  0.0000000  1.0000000 )


      isym =  2     180 deg rotation - cart. axis [0,1,0]        

 cryst.   s( 2) = (    -1          0          0      )    f =(  0.0000000 )
                  (     1          1          0      )       (  0.0000000 )
                  (     0          0         -1      )       (  0.5000000 )

 cart.    s( 2) = ( -1.0000000  0.0000000  0.0000000 )    f =(  0.0000000 )
                  (  0.0000000  1.0000000  0.0000000 )       (  0.0000000 )
                  (  0.0000000  0.0000000 -1.0000000 )       (  5.8513751 )


      isym =  3     120 deg rotation - cryst. axis [0,0,1]       

 cryst.   s( 3) = (     0          1          0      )
                  (    -1         -1          0      )
                  (     0          0          1      )

 cart.    s( 3) = ( -0.5000000 -0.8660254  0.0000000 )
                  (  0.8660254 -0.5000000  0.0000000 )
                  (  0.0000000  0.0000000  1.0000000 )


      isym =  4     120 deg rotation - cryst. axis [0,0,-1]      

 cryst.   s( 4) = (    -1         -1          0      )
                  (     1          0          0      )
                  (     0          0          1      )

 cart.    s( 4) = ( -0.5000000  0.8660254  0.0000000 )
                  ( -0.8660254 -0.5000000  0.0000000 )
                  (  0.0000000  0.0000000  1.0000000 )


      isym =  5     180 deg rotation - cryst. axis [1,-1,0]      

 cryst.   s( 5) = (     0         -1          0      )    f =(  0.0000000 )
                  (    -1          0          0      )       (  0.0000000 )
                  (     0          0         -1      )       (  0.5000000 )

 cart.    s( 5) = (  0.5000000 -0.8660254  0.0000000 )    f =(  0.0000000 )
                  ( -0.8660254 -0.5000000  0.0000000 )       (  0.0000000 )
                  (  0.0000000  0.0000000 -1.0000000 )       (  5.8513751 )


      isym =  6     180 deg rotation - cryst. axis [2,1,0]       

 cryst.   s( 6) = (     1          1          0      )    f =(  0.0000000 )
                  (     0         -1          0      )       (  0.0000000 )
                  (     0          0         -1      )       (  0.5000000 )

 cart.    s( 6) = (  0.5000000  0.8660254  0.0000000 )    f =( -0.0000000 )
                  (  0.8660254 -0.5000000  0.0000000 )       (  0.0000000 )
                  (  0.0000000  0.0000000 -1.0000000 )       (  5.8513751 )


      isym =  7     inv. 180 deg rotation - cart. axis [0,0,1]   

 cryst.   s( 7) = (     1          0          0      )    f =(  0.0000000 )
                  (     0          1          0      )       (  0.0000000 )
                  (     0          0         -1      )       (  0.5000000 )

 cart.    s( 7) = (  1.0000000  0.0000000  0.0000000 )    f =(  0.0000000 )
                  (  0.0000000  1.0000000  0.0000000 )       (  0.0000000 )
                  (  0.0000000  0.0000000 -1.0000000 )       (  5.8513751 )


      isym =  8     inv. 180 deg rotation - cart. axis [1,0,0]   

 cryst.   s( 8) = (    -1          0          0      )
                  (     1          1          0      )
                  (     0          0          1      )

 cart.    s( 8) = ( -1.0000000  0.0000000  0.0000000 )
                  (  0.0000000  1.0000000  0.0000000 )
                  (  0.0000000  0.0000000  1.0000000 )


      isym =  9     inv.  60 deg rotation - cryst. axis [0,0,1]  

 cryst.   s( 9) = (    -1         -1          0      )    f =(  0.0000000 )
                  (     1          0          0      )       (  0.0000000 )
                  (     0          0         -1      )       (  0.5000000 )

 cart.    s( 9) = ( -0.5000000  0.8660254  0.0000000 )    f =( -0.0000000 )
                  ( -0.8660254 -0.5000000  0.0000000 )       (  0.0000000 )
                  (  0.0000000  0.0000000 -1.0000000 )       (  5.8513751 )


      isym = 10     inv.  60 deg rotation - cryst. axis [0,0,-1] 

 cryst.   s(10) = (     0          1          0      )    f =(  0.0000000 )
                  (    -1         -1          0      )       (  0.0000000 )
                  (     0          0         -1      )       (  0.5000000 )

 cart.    s(10) = ( -0.5000000 -0.8660254  0.0000000 )    f =(  0.0000000 )
                  (  0.8660254 -0.5000000  0.0000000 )       (  0.0000000 )
                  (  0.0000000  0.0000000 -1.0000000 )       (  5.8513751 )


      isym = 11     inv. 180 deg rotation - cryst. axis [0,1,0]  

 cryst.   s(11) = (     1          1          0      )
                  (     0         -1          0      )
                  (     0          0          1      )

 cart.    s(11) = (  0.5000000  0.8660254  0.0000000 )
                  (  0.8660254 -0.5000000  0.0000000 )
                  (  0.0000000  0.0000000  1.0000000 )


      isym = 12     inv. 180 deg rotation - cryst. axis [1,1,0]  

 cryst.   s(12) = (     0         -1          0      )
                  (    -1          0          0      )
                  (     0          0          1      )

 cart.    s(12) = (  0.5000000 -0.8660254  0.0000000 )
                  ( -0.8660254 -0.5000000  0.0000000 )
                  (  0.0000000  0.0000000  1.0000000 )


     point group D_3h (-62m)
     there are  6 classes
     the character table:

       E     2C3   3C2   s_h   2S3   3s_v 
A'_1   1.00  1.00  1.00  1.00  1.00  1.00
A'_2   1.00  1.00 -1.00  1.00  1.00 -1.00
E'     2.00 -1.00  0.00  2.00 -1.00  0.00
A''1   1.00  1.00  1.00 -1.00 -1.00 -1.00
A''2   1.00  1.00 -1.00 -1.00 -1.00  1.00
E''    2.00 -1.00  0.00 -2.00  1.00  0.00

     the symmetry operations in each class and the name of the first element:

     E        1
          identity                                               
     2C3      3    4
          120 deg rotation - cryst. axis [0,0,1]                 
     3C2      2    6    5
          180 deg rotation - cart. axis [0,1,0]                  
     s_h      7
          inv. 180 deg rotation - cart. axis [0,0,1]             
     2S3      9   10
          inv.  60 deg rotation - cryst. axis [0,0,1]            
     3s_v     8   11   12
          inv. 180 deg rotation - cart. axis [1,0,0]             

   Cartesian axes

     site n.     atom                  positions (alat units)
         1           S   tau(   1) = (   0.0000000   0.5773503   4.3089526  )
         2           Nb  tau(   2) = (   0.0000000   0.0000000   2.9256875  )
         3           S   tau(   3) = (   0.0000000   0.5773503   1.5424225  )

   Crystallographic axes

     site n.     atom                  positions (cryst. coord.)
         1           S   tau(   1) = (  0.3333333  0.6666667  0.3682000  )
         2           Nb  tau(   2) = (  0.0000000  0.0000000  0.2500000  )
         3           S   tau(   3) = (  0.3333333  0.6666667  0.1318000  )

     number of k points=    10  Methfessel-Paxton smearing, width (Ry)=  0.0200
                       cart. coord. in units 2pi/alat
        k(    1) = (   0.0000000   0.0000000   0.0000000), wk =   0.0312500
        k(    2) = (   0.0000000   0.1443376   0.0000000), wk =   0.1875000
        k(    3) = (   0.0000000   0.2886751   0.0000000), wk =   0.1875000
        k(    4) = (   0.0000000   0.4330127   0.0000000), wk =   0.1875000
        k(    5) = (   0.0000000  -0.5773503   0.0000000), wk =   0.0937500
        k(    6) = (   0.1250000   0.2165064   0.0000000), wk =   0.1875000
        k(    7) = (   0.1250000   0.3608439   0.0000000), wk =   0.3750000
        k(    8) = (   0.1250000   0.5051815   0.0000000), wk =   0.3750000
        k(    9) = (   0.2500000   0.4330127   0.0000000), wk =   0.1875000
        k(   10) = (   0.2500000   0.5773503   0.0000000), wk =   0.1875000

                       cryst. coord.
        k(    1) = (   0.0000000   0.0000000   0.0000000), wk =   0.0312500
        k(    2) = (   0.0000000   0.1250000   0.0000000), wk =   0.1875000
        k(    3) = (   0.0000000   0.2500000   0.0000000), wk =   0.1875000
        k(    4) = (   0.0000000   0.3750000   0.0000000), wk =   0.1875000
        k(    5) = (   0.0000000  -0.5000000   0.0000000), wk =   0.0937500
        k(    6) = (   0.1250000   0.1250000   0.0000000), wk =   0.1875000
        k(    7) = (   0.1250000   0.2500000   0.0000000), wk =   0.3750000
        k(    8) = (   0.1250000   0.3750000   0.0000000), wk =   0.3750000
        k(    9) = (   0.2500000   0.2500000   0.0000000), wk =   0.1875000
        k(   10) = (   0.2500000   0.3750000   0.0000000), wk =   0.1875000

     Dense  grid:   369475 G-vectors     FFT dimensions: (  45,  45, 486)

     Smooth grid:    93023 G-vectors     FFT dimensions: (  25,  25, 320)

     Dynamical RAM for                 wfc:       2.23 MB

     Dynamical RAM for     wfc (w. buffer):      24.48 MB

     Dynamical RAM for           str. fact:       5.64 MB

     Dynamical RAM for           local pot:       0.00 MB

     Dynamical RAM for          nlocal pot:       3.03 MB

     Dynamical RAM for                qrad:       3.21 MB

     Dynamical RAM for          rho,v,vnew:      19.72 MB

     Dynamical RAM for               rhoin:       6.57 MB

     Dynamical RAM for            rho*nmix:      45.10 MB

     Dynamical RAM for           G-vectors:      10.93 MB

     Dynamical RAM for          h,s,v(r/c):       0.11 MB

     Dynamical RAM for          <psi|beta>:       0.01 MB

     Dynamical RAM for                 psi:       4.45 MB

     Dynamical RAM for                hpsi:       4.45 MB

     Dynamical RAM for                spsi:       4.45 MB

     Dynamical RAM for      wfcinit/wfcrot:       4.46 MB

     Dynamical RAM for           addusdens:     529.97 MB

     Estimated static dynamical RAM per process >     145.90 MB

     Estimated max dynamical RAM per process >     675.87 MB

     Estimated total dynamical RAM >       1.32 GB

     Initial potential from superposition of free atoms

     starting charge   24.99887, renormalised to   25.00000

     negative rho (up, down):  3.555E-04 0.000E+00
     Starting wfcs are   21 randomized atomic wfcs +    4 random wfcs
     Checking if some PAW data can be deallocated... 
       PAW data deallocated on    1 nodes for type:  1

     total cpu time spent up to now is        6.3 secs

     Self-consistent Calculation

     iteration #  1     ecut=    40.00 Ry     beta= 0.70
     Davidson diagonalization with overlap
     ethr =  1.00E-02,  avg # of iterations =  9.8

     negative rho (up, down):  4.226E-04 0.000E+00

     total cpu time spent up to now is       20.1 secs

     total energy              =    -451.13021340 Ry
     estimated scf accuracy    <       2.20373616 Ry

     iteration #  2     ecut=    40.00 Ry     beta= 0.70
     Davidson diagonalization with overlap
     ethr =  8.81E-03,  avg # of iterations =  6.2

     negative rho (up, down):  7.171E-04 0.000E+00

     total cpu time spent up to now is       34.9 secs

     total energy              =    -447.12463100 Ry
     estimated scf accuracy    <     206.67729271 Ry

     iteration #  3     ecut=    40.00 Ry     beta= 0.70
     Davidson diagonalization with overlap
     ethr =  8.81E-03,  avg # of iterations =  6.2

     negative rho (up, down):  5.346E-04 0.000E+00

     total cpu time spent up to now is       49.8 secs

     total energy              =    -452.02398431 Ry
     estimated scf accuracy    <      21.95766061 Ry

     iteration #  4     ecut=    40.00 Ry     beta= 0.70
     Davidson diagonalization with overlap
     ethr =  8.81E-03,  avg # of iterations =  3.0

     negative rho (up, down):  4.595E-04 0.000E+00

     total cpu time spent up to now is       59.9 secs

     total energy              =    -452.64751344 Ry
     estimated scf accuracy    <      13.03677383 Ry

     iteration #  5     ecut=    40.00 Ry     beta= 0.70
     Davidson diagonalization with overlap
     ethr =  8.81E-03,  avg # of iterations =  1.3

     negative rho (up, down):  4.350E-04 0.000E+00

     total cpu time spent up to now is       69.2 secs

     total energy              =    -453.00126883 Ry
     estimated scf accuracy    <       0.80165163 Ry

     iteration #  6     ecut=    40.00 Ry     beta= 0.70
     Davidson diagonalization with overlap
     ethr =  3.21E-03,  avg # of iterations =  1.0

     negative rho (up, down):  4.363E-04 0.000E+00

     total cpu time spent up to now is       78.4 secs

     total energy              =    -452.95822658 Ry
     estimated scf accuracy    <       1.38702650 Ry

     iteration #  7     ecut=    40.00 Ry     beta= 0.70
     Davidson diagonalization with overlap
     ethr =  3.21E-03,  avg # of iterations =  1.3

     negative rho (up, down):  4.393E-04 0.000E+00

     total cpu time spent up to now is       87.7 secs

     total energy              =    -452.98049631 Ry
     estimated scf accuracy    <       0.03311205 Ry

     iteration #  8     ecut=    40.00 Ry     beta= 0.70
     Davidson diagonalization with overlap
     ethr =  1.32E-04,  avg # of iterations =  9.2

     negative rho (up, down):  4.364E-04 0.000E+00

     total cpu time spent up to now is       99.7 secs

     total energy              =    -452.98283588 Ry
     estimated scf accuracy    <       0.08641542 Ry

     iteration #  9     ecut=    40.00 Ry     beta= 0.70
     Davidson diagonalization with overlap
     ethr =  1.32E-04,  avg # of iterations =  1.0

     negative rho (up, down):  4.450E-04 0.000E+00

     total cpu time spent up to now is      108.8 secs

     total energy              =    -452.97939004 Ry
     estimated scf accuracy    <       0.12681768 Ry

     iteration # 10     ecut=    40.00 Ry     beta= 0.70
     Davidson diagonalization with overlap
     ethr =  1.32E-04,  avg # of iterations =  1.0

     negative rho (up, down):  4.771E-04 0.000E+00

     total cpu time spent up to now is      117.9 secs

     total energy              =    -452.96948832 Ry
     estimated scf accuracy    <       0.11903893 Ry

     iteration # 11     ecut=    40.00 Ry     beta= 0.70
     Davidson diagonalization with overlap
     ethr =  1.32E-04,  avg # of iterations =  1.0

     negative rho (up, down):  4.750E-04 0.000E+00

     total cpu time spent up to now is      127.1 secs

     total energy              =    -452.97316371 Ry
     estimated scf accuracy    <       0.01456890 Ry

     iteration # 12     ecut=    40.00 Ry     beta= 0.70
     Davidson diagonalization with overlap
     ethr =  5.83E-05,  avg # of iterations =  1.1

     negative rho (up, down):  4.793E-04 0.000E+00

     total cpu time spent up to now is      136.3 secs

     total energy              =    -452.97426606 Ry
     estimated scf accuracy    <       0.00755144 Ry

     iteration # 13     ecut=    40.00 Ry     beta= 0.70
     Davidson diagonalization with overlap
     ethr =  3.02E-05,  avg # of iterations =  1.2

     negative rho (up, down):  4.672E-04 0.000E+00

     total cpu time spent up to now is      145.6 secs

     total energy              =    -452.97203796 Ry
     estimated scf accuracy    <       0.05851778 Ry

     iteration # 14     ecut=    40.00 Ry     beta= 0.70
     Davidson diagonalization with overlap
     ethr =  3.02E-05,  avg # of iterations =  1.0

     negative rho (up, down):  4.675E-04 0.000E+00

     total cpu time spent up to now is      154.8 secs

     total energy              =    -452.97328923 Ry
     estimated scf accuracy    <       0.00024235 Ry

     iteration # 15     ecut=    40.00 Ry     beta= 0.70
     Davidson diagonalization with overlap
     ethr =  9.69E-07,  avg # of iterations =  3.8

     negative rho (up, down):  4.673E-04 0.000E+00

     total cpu time spent up to now is      164.9 secs

     total energy              =    -452.97327681 Ry
     estimated scf accuracy    <       0.00154986 Ry

     iteration # 16     ecut=    40.00 Ry     beta= 0.70
     Davidson diagonalization with overlap
     ethr =  9.69E-07,  avg # of iterations =  1.0

     negative rho (up, down):  4.680E-04 0.000E+00

     total cpu time spent up to now is      174.1 secs

     total energy              =    -452.97327241 Ry
     estimated scf accuracy    <       0.00034510 Ry

     iteration # 17     ecut=    40.00 Ry     beta= 0.70
     Davidson diagonalization with overlap
     ethr =  9.69E-07,  avg # of iterations =  1.0

     negative rho (up, down):  4.688E-04 0.000E+00

     total cpu time spent up to now is      183.2 secs

     total energy              =    -452.97327631 Ry
     estimated scf accuracy    <       0.00002707 Ry

     iteration # 18     ecut=    40.00 Ry     beta= 0.70
     Davidson diagonalization with overlap
     ethr =  1.08E-07,  avg # of iterations =  1.6

     negative rho (up, down):  4.686E-04 0.000E+00

     total cpu time spent up to now is      192.8 secs

     total energy              =    -452.97327741 Ry
     estimated scf accuracy    <       0.00000636 Ry

     iteration # 19     ecut=    40.00 Ry     beta= 0.70
     Davidson diagonalization with overlap
     ethr =  2.54E-08,  avg # of iterations =  1.0

     negative rho (up, down):  4.685E-04 0.000E+00

     total cpu time spent up to now is      201.9 secs

     total energy              =    -452.97327668 Ry
     estimated scf accuracy    <       0.00000256 Ry

     iteration # 20     ecut=    40.00 Ry     beta= 0.70
     Davidson diagonalization with overlap
     ethr =  1.02E-08,  avg # of iterations =  2.0

     negative rho (up, down):  4.685E-04 0.000E+00

     total cpu time spent up to now is      211.8 secs

     total energy              =    -452.97327694 Ry
     estimated scf accuracy    <       0.00000009 Ry

     iteration # 21     ecut=    40.00 Ry     beta= 0.70
     Davidson diagonalization with overlap
     ethr =  3.48E-10,  avg # of iterations =  3.0

     negative rho (up, down):  4.686E-04 0.000E+00

     total cpu time spent up to now is      222.8 secs

     total energy              =    -452.97327691 Ry
     estimated scf accuracy    <       0.00000031 Ry

     iteration # 22     ecut=    40.00 Ry     beta= 0.70
     Davidson diagonalization with overlap
     ethr =  3.48E-10,  avg # of iterations =  2.0

     negative rho (up, down):  4.686E-04 0.000E+00

     total cpu time spent up to now is      233.4 secs

     End of self-consistent calculation

          k = 0.0000 0.0000 0.0000 ( 11841 PWs)   bands (ev):

   -60.2173 -36.5554 -35.9789 -35.9789 -16.1531 -16.1530  -8.0040  -5.9279
    -5.9166  -4.8396  -4.3386  -4.3386  -3.4648  -3.4648  -3.4646  -3.4646
    -3.2672  -3.2672  -3.0363   1.4011   1.8357   2.3421   2.5729   2.5749
     3.1032

     occupation numbers 
     1.0000   1.0000   1.0000   1.0000   1.0000   1.0000   1.0000   1.0000
     1.0000   0.9336  -0.0354  -0.0354  -0.0000  -0.0000  -0.0000  -0.0000
    -0.0000  -0.0000  -0.0000  -0.0000  -0.0000  -0.0000  -0.0000  -0.0000
    -0.0000

          k = 0.0000 0.1443 0.0000 ( 11739 PWs)   bands (ev):

   -60.2142 -36.5514 -36.0115 -35.9868 -16.0322 -16.0322  -7.6436  -5.7850
    -5.7843  -4.7454  -4.5419  -4.1624  -4.1380  -4.0801  -4.0369  -3.6011
    -3.6008  -3.3307  -2.1223   1.6897   2.1523   2.5956   2.7882   2.8551
     3.3255

     occupation numbers 
     1.0000   1.0000   1.0000   1.0000   1.0000   1.0000   1.0000   1.0000
     1.0000   0.7308   0.1511  -0.0123  -0.0095  -0.0046  -0.0025  -0.0000
    -0.0000  -0.0000  -0.0000  -0.0000  -0.0000  -0.0000  -0.0000  -0.0000
    -0.0000

          k = 0.0000 0.2887 0.0000 ( 11727 PWs)   bands (ev):

   -60.2068 -36.5418 -36.0895 -36.0059 -15.7144 -15.7143  -6.7575  -5.5211
    -5.5132  -5.4250  -5.4052  -4.7922  -4.7397  -4.4673  -3.9030  -3.9027
    -3.4793  -3.3767  -1.0138   2.3633   2.9103   3.1605   3.4724   3.6599
     4.0087

     occupation numbers 
     1.0000   1.0000   1.0000   1.0000   1.0000   1.0000   1.0000   1.0000
     1.0001   1.0003   1.0004   0.8456   0.7150   0.0278  -0.0003  -0.0003
    -0.0000  -0.0000  -0.0000  -0.0000  -0.0000  -0.0000  -0.0000  -0.0000
    -0.0000

          k = 0.0000 0.4330 0.0000 ( 11644 PWs)   bands (ev):

   -60.1995 -36.5322 -36.1665 -36.0250 -15.3485 -15.3485  -6.6634  -6.6604
    -6.2902  -5.3309  -5.0049  -4.8991  -4.2142  -4.1739  -4.1735  -3.9364
    -3.6215  -2.5023   0.1206   2.1636   3.0383   3.4125   3.6103   3.9391
     4.3287

     occupation numbers 
     1.0000   1.0000   1.0000   1.0000   1.0000   1.0000   1.0000   1.0000
     1.0000   1.0015   1.0354   1.0017  -0.0200  -0.0139  -0.0138  -0.0005
    -0.0000  -0.0000  -0.0000  -0.0000  -0.0000  -0.0000  -0.0000  -0.0000
    -0.0000

          k = 0.0000-0.5774 0.0000 ( 11566 PWs)   bands (ev):

   -60.1964 -36.5282 -36.1981 -36.0328 -15.1780 -15.1780  -7.1197  -7.1186
    -6.3180  -5.4514  -4.7792  -4.7405  -4.2787  -4.2783  -4.0909  -3.6787
    -2.8009  -2.0557   0.4974   0.7765   3.0734   3.0798   3.5377   3.6850
     4.4368

     occupation numbers 
     1.0000   1.0000   1.0000   1.0000   1.0000   1.0000   1.0000   1.0000
     1.0000   1.0002   0.8162   0.7173  -0.0306  -0.0306  -0.0053  -0.0000
    -0.0000  -0.0000  -0.0000  -0.0000  -0.0000  -0.0000  -0.0000  -0.0000
    -0.0000

          k = 0.1250 0.2165 0.0000 ( 11745 PWs)   bands (ev):

   -60.2090 -36.5446 -36.0632 -36.0040 -15.8120 -15.8120  -6.9821  -5.5496
    -5.5247  -5.0539  -5.0508  -4.8613  -4.5564  -4.5530  -3.9327  -3.9326
    -3.5347  -3.4856  -1.2942   2.1724   2.6910   3.0204   3.2267   3.3997
     3.7839

     occupation numbers 
     1.0000   1.0000   1.0000   1.0000   1.0000   1.0000   1.0000   1.0000
     1.0000   1.0311   1.0315   0.9637   0.1834   0.1757  -0.0004  -0.0004
    -0.0000  -0.0000  -0.0000  -0.0000  -0.0000  -0.0000  -0.0000  -0.0000
    -0.0000

          k = 0.1250 0.3608 0.0000 ( 11688 PWs)   bands (ev):

   -60.2016 -36.5350 -36.1328 -36.0310 -15.4638 -15.4638  -6.1684  -6.1457
    -6.0598  -5.2501  -5.1544  -4.9072  -4.8833  -4.4192  -4.4171  -4.2905
    -3.7346  -2.5446  -0.1757   2.9002   3.3958   3.4957   3.7564   4.2578
     4.4228

     occupation numbers 
     1.0000   1.0000   1.0000   1.0000   1.0000   1.0000   1.0000   1.0000
     1.0000   1.0050   1.0149   1.0077   0.9879  -0.0137  -0.0149  -0.0322
    -0.0000  -0.0000  -0.0000  -0.0000  -0.0000  -0.0000  -0.0000  -0.0000
    -0.0000

          k = 0.1250 0.5052 0.0000 ( 11597 PWs)   bands (ev):

   -60.1964 -36.5282 -36.1811 -36.0504 -15.1830 -15.1830  -6.8833  -6.8822
    -6.0124  -5.3297  -4.7963  -4.7444  -4.7211  -4.7211  -4.0944  -3.9124
    -3.8570  -1.4174   0.8953   0.9962   3.2523   3.4431   4.1168   4.2979
     4.6169

     occupation numbers 
     1.0000   1.0000   1.0000   1.0000   1.0000   1.0000   1.0000   1.0000
     1.0000   1.0016   0.8543   0.7280   0.6623   0.6623  -0.0056  -0.0003
    -0.0001  -0.0000  -0.0000  -0.0000  -0.0000  -0.0000  -0.0000  -0.0000
    -0.0000

          k = 0.2500 0.4330 0.0000 ( 11599 PWs)   bands (ev):

   -60.1964 -36.5282 -36.1572 -36.0747 -15.1880 -15.1880  -6.5252  -6.5241
    -5.2718  -5.2685  -5.2480  -5.1617  -5.0568  -4.7532  -4.7385  -4.1893
    -4.0956  -1.1795   0.9980   1.8693   3.2290   3.6480   3.9608   4.4262
     4.8260

     occupation numbers 
     1.0000   1.0000   1.0000   1.0000   1.0000   1.0000   1.0000   1.0000
     1.0037   1.0039   1.0051   1.0139   1.0306   0.7516   0.7118  -0.0161
    -0.0057  -0.0000  -0.0000  -0.0000  -0.0000  -0.0000  -0.0000  -0.0000
    -0.0000

          k = 0.2500 0.5774 0.0000 ( 11626 PWs)   bands (ev):

   -60.1943 -36.5253 -36.1592 -36.1009 -15.0649 -15.0649  -6.5991  -6.5984
    -5.6977  -5.6976  -5.3261  -5.0750  -4.6642  -4.6380  -4.4462  -4.4337
    -4.0214   0.2149   0.3087   1.8412   2.4674   3.7183   3.8523   4.8046
     4.9231

     occupation numbers 
     1.0000   1.0000   1.0000   1.0000   1.0000   1.0000   1.0000   1.0000
     1.0000   1.0000   1.0016   1.0278   0.4888   0.4077   0.0063  -0.0039
    -0.0020  -0.0000  -0.0000  -0.0000  -0.0000  -0.0000  -0.0000  -0.0000
    -0.0000

     the Fermi energy is    -4.6678 ev

!    total energy              =    -452.97327693 Ry

     total all-electron energy =     -9223.177788 Ry
     estimated scf accuracy    <          6.0E-09 Ry
     smearing contrib. (-TS)   =      -0.00253542 Ry
     internal energy E=F+TS    =    -452.97074151 Ry

     The total energy is F=E-TS. E is the sum of the following terms:
     one-electron contribution =   -1481.47177593 Ry
     hartree contribution      =     740.16679799 Ry
     xc contribution           =     -31.35612754 Ry
     ewald contribution        =     613.75036080 Ry
     one-center paw contrib.   =    -294.05999683 Ry
      -> PAW hartree energy AE =      81.84024141 Ry
      -> PAW hartree energy PS =     -81.35497580 Ry
      -> PAW xc energy AE      =    -275.71825222 Ry
      -> PAW xc energy PS      =      22.84471833 Ry
      -> total E_H with PAW    =     740.65206360 Ry
      -> total E_XC with PAW   =    -284.22966143 Ry

     convergence has been achieved in  22 iterations

     Writing output data file ./tmp/NbS2.save/

     init_run     :      4.88s CPU      5.23s WALL (       1 calls)
     electrons    :    214.05s CPU    227.16s WALL (       1 calls)

     Called by init_run:
     wfcinit      :      2.25s CPU      2.30s WALL (       1 calls)
     wfcinit:atom :      0.02s CPU      0.02s WALL (      10 calls)
     wfcinit:wfcr :      2.18s CPU      2.23s WALL (      10 calls)
     potinit      :      0.64s CPU      0.68s WALL (       1 calls)
     hinit0       :      0.97s CPU      1.00s WALL (       1 calls)

     Called by electrons:
     c_bands      :    130.63s CPU    131.93s WALL (      22 calls)
     sum_band     :     56.85s CPU     63.62s WALL (      22 calls)
     v_of_rho     :      1.90s CPU      1.95s WALL (      23 calls)
     v_h          :      1.06s CPU      1.08s WALL (      23 calls)
     v_xc         :      0.85s CPU      0.87s WALL (      23 calls)
     newd         :     20.78s CPU     25.89s WALL (      23 calls)
     PAW_pot      :      1.22s CPU      1.22s WALL (      23 calls)
     mix_rho      :      2.33s CPU      2.38s WALL (      22 calls)

     Called by c_bands:
     init_us_2    :      1.08s CPU      1.09s WALL (     450 calls)
     cegterg      :    128.44s CPU    129.69s WALL (     220 calls)

     Called by sum_band:
     sum_band:wei :      0.01s CPU      0.01s WALL (      22 calls)
     sum_band:loo :     23.86s CPU     24.11s WALL (      22 calls)
     sum_band:buf :      0.25s CPU      0.26s WALL (     220 calls)
     sum_band:ini :      0.52s CPU      0.52s WALL (     220 calls)
     sum_band:cal :      2.52s CPU      2.53s WALL (     220 calls)
     sum_band:bec :      0.01s CPU      0.01s WALL (     220 calls)
     addusdens    :     30.83s CPU     37.25s WALL (      22 calls)
     addusd:skk   :      0.05s CPU      0.08s WALL (      44 calls)
     addusd:dgemm :      7.67s CPU     12.81s WALL (      44 calls)
     addusd:qvan2 :     21.60s CPU     21.61s WALL (      44 calls)

     Called by *egterg:
     cdiaghg      :      0.65s CPU      0.65s WALL (     817 calls)
     cegterg:over :      8.31s CPU      8.32s WALL (     597 calls)
     cegterg:upda :      4.69s CPU      4.70s WALL (     597 calls)
     cegterg:last :     10.97s CPU     10.97s WALL (     361 calls)
     h_psi        :     95.36s CPU     96.59s WALL (     827 calls)
     s_psi        :      5.65s CPU      5.66s WALL (     827 calls)
     g_psi        :      0.21s CPU      0.22s WALL (     597 calls)

     Called by h_psi:
     h_psi:calbec :      6.22s CPU      6.26s WALL (     827 calls)
     vloc_psi     :     83.23s CPU     84.41s WALL (     827 calls)
     add_vuspsi   :      5.34s CPU      5.35s WALL (     827 calls)

     General routines
     calbec       :      8.74s CPU      8.78s WALL (    1047 calls)
     fft          :      4.91s CPU      5.05s WALL (     136 calls)
     ffts         :      0.28s CPU      0.28s WALL (      45 calls)
     fftw         :     86.58s CPU     87.74s WALL (   31690 calls)
     interpolate  :      1.05s CPU      1.08s WALL (      23 calls)

     Parallel routines
     fft_scatt_xy :     13.98s CPU     14.14s WALL (   31871 calls)
     fft_scatt_yz :      9.20s CPU      9.47s WALL (   31871 calls)

     PAW routines
     PAW_pot      :      1.22s CPU      1.22s WALL (      23 calls)
     PAW_symme    :      0.01s CPU      0.01s WALL (      45 calls)

     PWSCF        :   3m40.05s CPU   3m53.91s WALL


   This run was terminated on:  16:13:51  10Jun2021            

=------------------------------------------------------------------------------=
   JOB DONE.
=------------------------------------------------------------------------------=
