
     Program PWSCF v.6.6 starts on 10Jun2021 at 16: 1:19 

     This program is part of the open-source Quantum ESPRESSO suite
     for quantum simulation of materials; please cite
         "P. Giannozzi et al., J. Phys.:Condens. Matter 21 395502 (2009);
         "P. Giannozzi et al., J. Phys.:Condens. Matter 29 465901 (2017);
          URL http://www.quantum-espresso.org", 
     in publications or presentations arising from this work. More details at
     http://www.quantum-espresso.org/quote

     Parallel version (MPI), running on     2 processors

     MPI processes distributed on     1 nodes
     R & G space division:  proc/nbgrp/npool/nimage =       2
     Fft bands division:     nmany     =       1
     Waiting for input...
     Reading input from standard input

     Current dimensions of program PWSCF are:
     Max number of different atomic species (ntypx) = 10
     Max number of k-points (npk) =  40000
     Max angular momentum in pseudopotentials (lmaxx) =  3
     file Nb.pz-spn-kjpaw_psl.1.0.0.UPF: wavefunction(s)  4S 4P 4D renormalized
     file S.pz-n-kjpaw_psl.0.1.UPF: wavefunction(s)  3P renormalized

     Subspace diagonalization in iterative solution of the eigenvalue problem:
     a serial algorithm will be used


     Parallelization info
     --------------------
     sticks:   dense  smooth     PW     G-vecs:    dense   smooth      PW
     Min         579     225     69               184729    46499    7597
     Max         580     226     70               184746    46524    7612
     Sum        1159     451    139               369475    93023   15209



     bravais-lattice index     =            4
     lattice parameter (alat)  =       6.4591  a.u.
     unit-cell volume          =    2731.0606 (a.u.)^3
     number of atoms/cell      =            3
     number of atomic types    =            2
     number of electrons       =        25.00
     number of Kohn-Sham states=           25
     kinetic-energy cutoff     =      40.0000  Ry
     charge density cutoff     =     400.0000  Ry
     convergence threshold     =      1.0E-08
     mixing beta               =       0.7000
     number of iterations used =            8  plain     mixing
     Exchange-correlation= SLA PZ NOGX NOGC
                           (   1   1   0   0   0   0   0)

     celldm(1)=   6.459084  celldm(2)=   0.000000  celldm(3)=  11.702750
     celldm(4)=   0.000000  celldm(5)=   0.000000  celldm(6)=   0.000000

     crystal axes: (cart. coord. in units of alat)
               a(1) = (   1.000000   0.000000   0.000000 )  
               a(2) = (  -0.500000   0.866025   0.000000 )  
               a(3) = (   0.000000   0.000000  11.702750 )  

     reciprocal axes: (cart. coord. in units 2 pi/alat)
               b(1) = (  1.000000  0.577350 -0.000000 )  
               b(2) = (  0.000000  1.154701  0.000000 )  
               b(3) = (  0.000000 -0.000000  0.085450 )  


     PseudoPot. # 1 for Nb read from file:
     ../Nb.pz-spn-kjpaw_psl.1.0.0.UPF
     MD5 check sum: 38c2e04b3cc915696ca8dc9f46a23270
     Pseudo is Projector augmented-wave + core cor, Zval = 13.0
     Generated using "atomic" code by A. Dal Corso v.6.2.2
     Shape of augmentation charge: PSQ
     Using radial grid of 1227 points,  6 beta functions with: 
                l(1) =   0
                l(2) =   0
                l(3) =   1
                l(4) =   1
                l(5) =   2
                l(6) =   2
     Q(r) pseudized with 0 coefficients 


     PseudoPot. # 2 for S  read from file:
     ../S.pz-n-kjpaw_psl.0.1.UPF
     MD5 check sum: c0b1682311cf098e03f7841691d9a679
     Pseudo is Projector augmented-wave + core cor, Zval =  6.0
     Generated using "atomic" code by A. Dal Corso v.5.0.2 svn rev. 9415
     Shape of augmentation charge: PSQ
     Using radial grid of 1151 points,  4 beta functions with: 
                l(1) =   0
                l(2) =   0
                l(3) =   1
                l(4) =   1
     Q(r) pseudized with 0 coefficients 


     atomic species   valence    mass     pseudopotential
        Nb            13.00    92.90600     Nb( 1.00)
        S              6.00    32.06500     S ( 1.00)

     12 Sym. Ops. (no inversion) found ( 6 have fractional translation)


                                    s                        frac. trans.

      isym =  1     identity                                     

 cryst.   s( 1) = (     1          0          0      )
                  (     0          1          0      )
                  (     0          0          1      )

 cart.    s( 1) = (  1.0000000  0.0000000  0.0000000 )
                  (  0.0000000  1.0000000  0.0000000 )
                  (  0.0000000  0.0000000  1.0000000 )


      isym =  2     180 deg rotation - cart. axis [0,1,0]        

 cryst.   s( 2) = (    -1          0          0      )    f =(  0.0000000 )
                  (     1          1          0      )       (  0.0000000 )
                  (     0          0         -1      )       (  0.5000000 )

 cart.    s( 2) = ( -1.0000000  0.0000000  0.0000000 )    f =(  0.0000000 )
                  (  0.0000000  1.0000000  0.0000000 )       (  0.0000000 )
                  (  0.0000000  0.0000000 -1.0000000 )       (  5.8513751 )


      isym =  3     120 deg rotation - cryst. axis [0,0,1]       

 cryst.   s( 3) = (     0          1          0      )
                  (    -1         -1          0      )
                  (     0          0          1      )

 cart.    s( 3) = ( -0.5000000 -0.8660254  0.0000000 )
                  (  0.8660254 -0.5000000  0.0000000 )
                  (  0.0000000  0.0000000  1.0000000 )


      isym =  4     120 deg rotation - cryst. axis [0,0,-1]      

 cryst.   s( 4) = (    -1         -1          0      )
                  (     1          0          0      )
                  (     0          0          1      )

 cart.    s( 4) = ( -0.5000000  0.8660254  0.0000000 )
                  ( -0.8660254 -0.5000000  0.0000000 )
                  (  0.0000000  0.0000000  1.0000000 )


      isym =  5     180 deg rotation - cryst. axis [1,-1,0]      

 cryst.   s( 5) = (     0         -1          0      )    f =(  0.0000000 )
                  (    -1          0          0      )       (  0.0000000 )
                  (     0          0         -1      )       (  0.5000000 )

 cart.    s( 5) = (  0.5000000 -0.8660254  0.0000000 )    f =(  0.0000000 )
                  ( -0.8660254 -0.5000000  0.0000000 )       (  0.0000000 )
                  (  0.0000000  0.0000000 -1.0000000 )       (  5.8513751 )


      isym =  6     180 deg rotation - cryst. axis [2,1,0]       

 cryst.   s( 6) = (     1          1          0      )    f =(  0.0000000 )
                  (     0         -1          0      )       (  0.0000000 )
                  (     0          0         -1      )       (  0.5000000 )

 cart.    s( 6) = (  0.5000000  0.8660254  0.0000000 )    f =( -0.0000000 )
                  (  0.8660254 -0.5000000  0.0000000 )       (  0.0000000 )
                  (  0.0000000  0.0000000 -1.0000000 )       (  5.8513751 )


      isym =  7     inv. 180 deg rotation - cart. axis [0,0,1]   

 cryst.   s( 7) = (     1          0          0      )    f =(  0.0000000 )
                  (     0          1          0      )       (  0.0000000 )
                  (     0          0         -1      )       (  0.5000000 )

 cart.    s( 7) = (  1.0000000  0.0000000  0.0000000 )    f =(  0.0000000 )
                  (  0.0000000  1.0000000  0.0000000 )       (  0.0000000 )
                  (  0.0000000  0.0000000 -1.0000000 )       (  5.8513751 )


      isym =  8     inv. 180 deg rotation - cart. axis [1,0,0]   

 cryst.   s( 8) = (    -1          0          0      )
                  (     1          1          0      )
                  (     0          0          1      )

 cart.    s( 8) = ( -1.0000000  0.0000000  0.0000000 )
                  (  0.0000000  1.0000000  0.0000000 )
                  (  0.0000000  0.0000000  1.0000000 )


      isym =  9     inv.  60 deg rotation - cryst. axis [0,0,1]  

 cryst.   s( 9) = (    -1         -1          0      )    f =(  0.0000000 )
                  (     1          0          0      )       (  0.0000000 )
                  (     0          0         -1      )       (  0.5000000 )

 cart.    s( 9) = ( -0.5000000  0.8660254  0.0000000 )    f =( -0.0000000 )
                  ( -0.8660254 -0.5000000  0.0000000 )       (  0.0000000 )
                  (  0.0000000  0.0000000 -1.0000000 )       (  5.8513751 )


      isym = 10     inv.  60 deg rotation - cryst. axis [0,0,-1] 

 cryst.   s(10) = (     0          1          0      )    f =(  0.0000000 )
                  (    -1         -1          0      )       (  0.0000000 )
                  (     0          0         -1      )       (  0.5000000 )

 cart.    s(10) = ( -0.5000000 -0.8660254  0.0000000 )    f =(  0.0000000 )
                  (  0.8660254 -0.5000000  0.0000000 )       (  0.0000000 )
                  (  0.0000000  0.0000000 -1.0000000 )       (  5.8513751 )


      isym = 11     inv. 180 deg rotation - cryst. axis [0,1,0]  

 cryst.   s(11) = (     1          1          0      )
                  (     0         -1          0      )
                  (     0          0          1      )

 cart.    s(11) = (  0.5000000  0.8660254  0.0000000 )
                  (  0.8660254 -0.5000000  0.0000000 )
                  (  0.0000000  0.0000000  1.0000000 )


      isym = 12     inv. 180 deg rotation - cryst. axis [1,1,0]  

 cryst.   s(12) = (     0         -1          0      )
                  (    -1          0          0      )
                  (     0          0          1      )

 cart.    s(12) = (  0.5000000 -0.8660254  0.0000000 )
                  ( -0.8660254 -0.5000000  0.0000000 )
                  (  0.0000000  0.0000000  1.0000000 )


     point group D_3h (-62m)
     there are  6 classes
     the character table:

       E     2C3   3C2   s_h   2S3   3s_v 
A'_1   1.00  1.00  1.00  1.00  1.00  1.00
A'_2   1.00  1.00 -1.00  1.00  1.00 -1.00
E'     2.00 -1.00  0.00  2.00 -1.00  0.00
A''1   1.00  1.00  1.00 -1.00 -1.00 -1.00
A''2   1.00  1.00 -1.00 -1.00 -1.00  1.00
E''    2.00 -1.00  0.00 -2.00  1.00  0.00

     the symmetry operations in each class and the name of the first element:

     E        1
          identity                                               
     2C3      3    4
          120 deg rotation - cryst. axis [0,0,1]                 
     3C2      2    6    5
          180 deg rotation - cart. axis [0,1,0]                  
     s_h      7
          inv. 180 deg rotation - cart. axis [0,0,1]             
     2S3      9   10
          inv.  60 deg rotation - cryst. axis [0,0,1]            
     3s_v     8   11   12
          inv. 180 deg rotation - cart. axis [1,0,0]             

   Cartesian axes

     site n.     atom                  positions (alat units)
         1           S   tau(   1) = (   0.0000000   0.5773503   4.3089526  )
         2           Nb  tau(   2) = (   0.0000000   0.0000000   2.9256875  )
         3           S   tau(   3) = (   0.0000000   0.5773503   1.5424225  )

   Crystallographic axes

     site n.     atom                  positions (cryst. coord.)
         1           S   tau(   1) = (  0.3333333  0.6666667  0.3682000  )
         2           Nb  tau(   2) = (  0.0000000  0.0000000  0.2500000  )
         3           S   tau(   3) = (  0.3333333  0.6666667  0.1318000  )

     number of k points=     5  Methfessel-Paxton smearing, width (Ry)=  0.0200
                       cart. coord. in units 2pi/alat
        k(    1) = (   0.0000000   0.0000000   0.0000000), wk =   0.0800000
        k(    2) = (   0.0000000   0.2309401   0.0000000), wk =   0.4800000
        k(    3) = (   0.0000000   0.4618802   0.0000000), wk =   0.4800000
        k(    4) = (   0.2000000   0.3464102   0.0000000), wk =   0.4800000
        k(    5) = (   0.2000000   0.5773503   0.0000000), wk =   0.4800000

                       cryst. coord.
        k(    1) = (   0.0000000   0.0000000   0.0000000), wk =   0.0800000
        k(    2) = (   0.0000000   0.2000000   0.0000000), wk =   0.4800000
        k(    3) = (   0.0000000   0.4000000   0.0000000), wk =   0.4800000
        k(    4) = (   0.2000000   0.2000000   0.0000000), wk =   0.4800000
        k(    5) = (   0.2000000   0.4000000   0.0000000), wk =   0.4800000

     Dense  grid:   369475 G-vectors     FFT dimensions: (  45,  45, 486)

     Smooth grid:    93023 G-vectors     FFT dimensions: (  25,  25, 320)

     Dynamical RAM for                 wfc:       2.23 MB

     Dynamical RAM for     wfc (w. buffer):      13.35 MB

     Dynamical RAM for           str. fact:       5.64 MB

     Dynamical RAM for           local pot:       0.00 MB

     Dynamical RAM for          nlocal pot:       3.03 MB

     Dynamical RAM for                qrad:       3.21 MB

     Dynamical RAM for          rho,v,vnew:      19.72 MB

     Dynamical RAM for               rhoin:       6.57 MB

     Dynamical RAM for            rho*nmix:      45.10 MB

     Dynamical RAM for           G-vectors:      10.93 MB

     Dynamical RAM for          h,s,v(r/c):       0.11 MB

     Dynamical RAM for          <psi|beta>:       0.01 MB

     Dynamical RAM for                 psi:       4.45 MB

     Dynamical RAM for                hpsi:       4.45 MB

     Dynamical RAM for                spsi:       4.45 MB

     Dynamical RAM for      wfcinit/wfcrot:       4.46 MB

     Dynamical RAM for           addusdens:     529.97 MB

     Estimated static dynamical RAM per process >     134.78 MB

     Estimated max dynamical RAM per process >     664.75 MB

     Estimated total dynamical RAM >       1.30 GB

     Initial potential from superposition of free atoms

     starting charge   24.99887, renormalised to   25.00000

     negative rho (up, down):  3.555E-04 0.000E+00
     Starting wfcs are   21 randomized atomic wfcs +    4 random wfcs
     Checking if some PAW data can be deallocated... 
       PAW data deallocated on    1 nodes for type:  1

     total cpu time spent up to now is        5.1 secs

     Self-consistent Calculation

     iteration #  1     ecut=    40.00 Ry     beta= 0.70
     Davidson diagonalization with overlap
     ethr =  1.00E-02,  avg # of iterations = 10.4

     negative rho (up, down):  4.214E-04 0.000E+00

     total cpu time spent up to now is       13.8 secs

     total energy              =    -450.41978673 Ry
     estimated scf accuracy    <       3.00778652 Ry

     iteration #  2     ecut=    40.00 Ry     beta= 0.70
     Davidson diagonalization with overlap
     ethr =  1.00E-02,  avg # of iterations =  6.0

     negative rho (up, down):  7.396E-04 0.000E+00

     total cpu time spent up to now is       22.9 secs

     total energy              =    -447.85467979 Ry
     estimated scf accuracy    <     214.12098238 Ry

     iteration #  3     ecut=    40.00 Ry     beta= 0.70
     Davidson diagonalization with overlap
     ethr =  1.00E-02,  avg # of iterations =  5.6

     negative rho (up, down):  5.520E-04 0.000E+00

     total cpu time spent up to now is       31.9 secs

     total energy              =    -451.23442866 Ry
     estimated scf accuracy    <      38.39151135 Ry

     iteration #  4     ecut=    40.00 Ry     beta= 0.70
     Davidson diagonalization with overlap
     ethr =  1.00E-02,  avg # of iterations =  4.6

     negative rho (up, down):  4.705E-04 0.000E+00

     total cpu time spent up to now is       39.0 secs

     total energy              =    -452.73912833 Ry
     estimated scf accuracy    <      14.80459911 Ry

     iteration #  5     ecut=    40.00 Ry     beta= 0.70
     Davidson diagonalization with overlap
     ethr =  1.00E-02,  avg # of iterations =  1.0

     negative rho (up, down):  4.453E-04 0.000E+00

     total cpu time spent up to now is       45.1 secs

     total energy              =    -452.97127214 Ry
     estimated scf accuracy    <       0.35726685 Ry

     iteration #  6     ecut=    40.00 Ry     beta= 0.70
     Davidson diagonalization with overlap
     ethr =  1.43E-03,  avg # of iterations =  5.2

     negative rho (up, down):  4.423E-04 0.000E+00

     total cpu time spent up to now is       52.0 secs

     total energy              =    -452.97307560 Ry
     estimated scf accuracy    <       0.10021652 Ry

     iteration #  7     ecut=    40.00 Ry     beta= 0.70
     Davidson diagonalization with overlap
     ethr =  4.01E-04,  avg # of iterations =  4.0

     negative rho (up, down):  4.455E-04 0.000E+00

     total cpu time spent up to now is       58.5 secs

     total energy              =    -452.98601257 Ry
     estimated scf accuracy    <       0.26585163 Ry

     iteration #  8     ecut=    40.00 Ry     beta= 0.70
     Davidson diagonalization with overlap
     ethr =  4.01E-04,  avg # of iterations =  1.2

     negative rho (up, down):  4.463E-04 0.000E+00

     total cpu time spent up to now is       64.8 secs

     total energy              =    -452.98750345 Ry
     estimated scf accuracy    <       0.58463923 Ry

     iteration #  9     ecut=    40.00 Ry     beta= 0.70
     Davidson diagonalization with overlap
     ethr =  4.01E-04,  avg # of iterations =  1.0

     negative rho (up, down):  4.480E-04 0.000E+00

     total cpu time spent up to now is       71.0 secs

     total energy              =    -452.98046762 Ry
     estimated scf accuracy    <       0.59398202 Ry

     iteration # 10     ecut=    40.00 Ry     beta= 0.70
     Davidson diagonalization with overlap
     ethr =  4.01E-04,  avg # of iterations =  1.0

     negative rho (up, down):  4.546E-04 0.000E+00

     total cpu time spent up to now is       77.1 secs

     total energy              =    -452.97345383 Ry
     estimated scf accuracy    <       0.30266168 Ry

     iteration # 11     ecut=    40.00 Ry     beta= 0.70
     Davidson diagonalization with overlap
     ethr =  4.01E-04,  avg # of iterations =  1.0

     negative rho (up, down):  4.643E-04 0.000E+00

     total cpu time spent up to now is       83.3 secs

     total energy              =    -452.97308841 Ry
     estimated scf accuracy    <       0.05302338 Ry

     iteration # 12     ecut=    40.00 Ry     beta= 0.70
     Davidson diagonalization with overlap
     ethr =  2.12E-04,  avg # of iterations =  1.2

     negative rho (up, down):  4.705E-04 0.000E+00

     total cpu time spent up to now is       89.5 secs

     total energy              =    -452.97273612 Ry
     estimated scf accuracy    <       0.01007937 Ry

     iteration # 13     ecut=    40.00 Ry     beta= 0.70
     Davidson diagonalization with overlap
     c_bands:  1 eigenvalues not converged
     ethr =  4.03E-05,  avg # of iterations =  5.8

     negative rho (up, down):  4.665E-04 0.000E+00

     total cpu time spent up to now is       96.3 secs

     total energy              =    -452.97280648 Ry
     estimated scf accuracy    <       0.02684727 Ry

     iteration # 14     ecut=    40.00 Ry     beta= 0.70
     Davidson diagonalization with overlap
     ethr =  4.03E-05,  avg # of iterations =  1.0

     negative rho (up, down):  4.666E-04 0.000E+00

     total cpu time spent up to now is      102.5 secs

     total energy              =    -452.97339403 Ry
     estimated scf accuracy    <       0.00138892 Ry

     iteration # 15     ecut=    40.00 Ry     beta= 0.70
     Davidson diagonalization with overlap
     ethr =  5.56E-06,  avg # of iterations =  5.6

     negative rho (up, down):  4.668E-04 0.000E+00

     total cpu time spent up to now is      109.3 secs

     total energy              =    -452.97338924 Ry
     estimated scf accuracy    <       0.00046328 Ry

     iteration # 16     ecut=    40.00 Ry     beta= 0.70
     Davidson diagonalization with overlap
     ethr =  1.85E-06,  avg # of iterations =  3.0

     negative rho (up, down):  4.671E-04 0.000E+00

     total cpu time spent up to now is      115.8 secs

     total energy              =    -452.97339072 Ry
     estimated scf accuracy    <       0.00012251 Ry

     iteration # 17     ecut=    40.00 Ry     beta= 0.70
     Davidson diagonalization with overlap
     ethr =  4.90E-07,  avg # of iterations =  1.0

     negative rho (up, down):  4.678E-04 0.000E+00

     total cpu time spent up to now is      122.0 secs

     total energy              =    -452.97339118 Ry
     estimated scf accuracy    <       0.00011350 Ry

     iteration # 18     ecut=    40.00 Ry     beta= 0.70
     Davidson diagonalization with overlap
     ethr =  4.54E-07,  avg # of iterations =  1.0

     negative rho (up, down):  4.677E-04 0.000E+00

     total cpu time spent up to now is      128.2 secs

     total energy              =    -452.97338864 Ry
     estimated scf accuracy    <       0.00020912 Ry

     iteration # 19     ecut=    40.00 Ry     beta= 0.70
     Davidson diagonalization with overlap
     ethr =  4.54E-07,  avg # of iterations =  1.0

     negative rho (up, down):  4.678E-04 0.000E+00

     total cpu time spent up to now is      134.4 secs

     total energy              =    -452.97338328 Ry
     estimated scf accuracy    <       0.00013878 Ry

     iteration # 20     ecut=    40.00 Ry     beta= 0.70
     Davidson diagonalization with overlap
     ethr =  4.54E-07,  avg # of iterations =  1.0

     negative rho (up, down):  4.677E-04 0.000E+00

     total cpu time spent up to now is      140.6 secs

     total energy              =    -452.97338629 Ry
     estimated scf accuracy    <       0.00000179 Ry

     iteration # 21     ecut=    40.00 Ry     beta= 0.70
     Davidson diagonalization with overlap
     ethr =  7.16E-09,  avg # of iterations =  1.0

     negative rho (up, down):  4.677E-04 0.000E+00

     total cpu time spent up to now is      146.6 secs

     End of self-consistent calculation

          k = 0.0000 0.0000 0.0000 ( 11841 PWs)   bands (ev):

   -60.2711 -36.6049 -36.0418 -36.0418 -16.0815 -16.0814  -8.1259  -5.9199
    -5.8995  -4.8979  -4.4348  -4.4348  -3.3767  -3.3767  -3.3759  -3.3759
    -3.3406  -3.3406  -3.1174   1.3961   1.8428   2.3451   2.5715   2.5783
     3.1037

     occupation numbers 
     1.0000   1.0000   1.0000   1.0000   1.0000   1.0000   1.0000   1.0000
     1.0000   0.9882  -0.0129  -0.0129  -0.0000  -0.0000  -0.0000  -0.0000
    -0.0000  -0.0000  -0.0000  -0.0000  -0.0000  -0.0000  -0.0000  -0.0000
    -0.0000

          k = 0.0000 0.2309 0.0000 ( 11741 PWs)   bands (ev):

   -60.2638 -36.5954 -36.1190 -36.0606 -15.7874 -15.7874  -7.2569  -5.5848
    -5.5750  -4.8798  -4.8585  -4.8392  -4.6272  -4.5689  -3.7936  -3.6869
    -3.6861  -3.4898  -1.5416   2.0509   2.5802   2.9362   3.1254   3.2848
     3.6851

     occupation numbers 
     1.0000   1.0000   1.0000   1.0000   1.0000   1.0000   1.0000   1.0000
     1.0000   0.9688   0.9404   0.9096   0.3329   0.1795  -0.0000  -0.0000
    -0.0000  -0.0000  -0.0000  -0.0000  -0.0000  -0.0000  -0.0000  -0.0000
    -0.0000

          k = 0.0000 0.4619 0.0000 ( 11630 PWs)   bands (ev):

   -60.2521 -36.5801 -36.2418 -36.0910 -15.2216 -15.2216  -6.7365  -6.7335
    -6.4006  -5.4480  -4.9162  -4.8377  -4.2323  -4.1223  -4.1217  -3.7534
    -3.7175  -2.4399   0.2482   1.5845   3.0657   3.3577   3.6453   3.9012
     4.4160

     occupation numbers 
     1.0000   1.0000   1.0000   1.0000   1.0000   1.0000   1.0000   1.0000
     1.0000   1.0003   1.0039   0.9069  -0.0206  -0.0066  -0.0066  -0.0000
    -0.0000  -0.0000  -0.0000  -0.0000  -0.0000  -0.0000  -0.0000  -0.0000
    -0.0000

          k = 0.2000 0.3464 0.0000 ( 11641 PWs)   bands (ev):

   -60.2544 -36.5831 -36.1987 -36.1054 -15.3443 -15.3443  -6.0904  -6.0792
    -5.8604  -5.3148  -5.2599  -5.0298  -4.9024  -4.5803  -4.5787  -4.3171
    -3.9341  -2.3698  -0.0412   2.9902   3.4419   3.6437   3.6760   4.4397
     4.5922

     occupation numbers 
     1.0000   1.0000   1.0000   1.0000   1.0000   1.0000   1.0000   1.0000
     1.0000   1.0024   1.0053   1.0351   0.9924   0.2067   0.2026  -0.0337
    -0.0004  -0.0000  -0.0000  -0.0000  -0.0000  -0.0000  -0.0000  -0.0000
    -0.0000

          k = 0.2000 0.5774 0.0000 ( 11638 PWs)   bands (ev):

   -60.2485 -36.5754 -36.2367 -36.1439 -15.0261 -15.0261  -6.6951  -6.6943
    -5.7446  -5.2953  -5.2335  -5.2241  -4.6729  -4.6415  -4.3215  -4.2417
    -4.1029  -0.3557   0.1915   1.4670   3.1184   3.5376   3.6435   4.6022
     4.7651

     occupation numbers 
     1.0000   1.0000   1.0000   1.0000   1.0000   1.0000   1.0000   1.0000
     1.0000   1.0032   1.0073   1.0082   0.4713   0.3754  -0.0341  -0.0222
    -0.0052  -0.0000  -0.0000  -0.0000  -0.0000  -0.0000  -0.0000  -0.0000
    -0.0000

     the Fermi energy is    -4.6821 ev

!    total energy              =    -452.97338635 Ry

     total all-electron energy =     -9223.177897 Ry
     estimated scf accuracy    <          4.4E-09 Ry
     smearing contrib. (-TS)   =      -0.00270041 Ry
     internal energy E=F+TS    =    -452.97068594 Ry

     The total energy is F=E-TS. E is the sum of the following terms:
     one-electron contribution =   -1481.45696929 Ry
     hartree contribution      =     740.15829750 Ry
     xc contribution           =     -31.36218675 Ry
     ewald contribution        =     613.75036080 Ry
     one-center paw contrib.   =    -294.06018820 Ry
      -> PAW hartree energy AE =      81.99627743 Ry
      -> PAW hartree energy PS =     -81.51092264 Ry
      -> PAW xc energy AE      =    -275.73369727 Ry
      -> PAW xc energy PS      =      22.86038275 Ry
      -> total E_H with PAW    =     740.64365229 Ry
      -> total E_XC with PAW   =    -284.23550127 Ry

     convergence has been achieved in  21 iterations

     Writing output data file ./tmp/NbS2.save/

     init_run     :      3.75s CPU      4.06s WALL (       1 calls)
     electrons    :    130.04s CPU    141.57s WALL (       1 calls)

     Called by init_run:
     wfcinit      :      1.12s CPU      1.13s WALL (       1 calls)
     wfcinit:atom :      0.01s CPU      0.01s WALL (       5 calls)
     wfcinit:wfcr :      1.08s CPU      1.10s WALL (       5 calls)
     potinit      :      0.65s CPU      0.68s WALL (       1 calls)
     hinit0       :      0.99s CPU      1.00s WALL (       1 calls)

     Called by electrons:
     c_bands      :     61.51s CPU     62.08s WALL (      21 calls)
     sum_band     :     43.18s CPU     49.23s WALL (      21 calls)
     v_of_rho     :      1.82s CPU      1.87s WALL (      22 calls)
     v_h          :      1.01s CPU      1.04s WALL (      22 calls)
     v_xc         :      0.82s CPU      0.83s WALL (      22 calls)
     newd         :     19.88s CPU     24.87s WALL (      22 calls)
     PAW_pot      :      1.16s CPU      1.17s WALL (      22 calls)
     mix_rho      :      2.22s CPU      2.25s WALL (      21 calls)

     Called by c_bands:
     init_us_2    :      0.49s CPU      0.51s WALL (     215 calls)
     cegterg      :     60.49s CPU     61.02s WALL (     105 calls)

     Called by sum_band:
     sum_band:wei :      0.00s CPU      0.00s WALL (      21 calls)
     sum_band:loo :     11.45s CPU     11.56s WALL (      21 calls)
     sum_band:buf :      0.12s CPU      0.12s WALL (     105 calls)
     sum_band:ini :      0.25s CPU      0.25s WALL (     105 calls)
     sum_band:cal :      1.24s CPU      1.24s WALL (     105 calls)
     sum_band:bec :      0.00s CPU      0.00s WALL (     105 calls)
     addusdens    :     29.98s CPU     35.85s WALL (      21 calls)
     addusd:skk   :      0.05s CPU      0.08s WALL (      42 calls)
     addusd:dgemm :      7.66s CPU     12.40s WALL (      42 calls)
     addusd:qvan2 :     20.84s CPU     20.85s WALL (      42 calls)

     Called by *egterg:
     cdiaghg      :      0.32s CPU      0.32s WALL (     418 calls)
     cegterg:over :      4.00s CPU      4.00s WALL (     313 calls)
     cegterg:upda :      2.19s CPU      2.20s WALL (     313 calls)
     cegterg:last :      4.90s CPU      4.90s WALL (     167 calls)
     h_psi        :     45.06s CPU     45.58s WALL (     423 calls)
     s_psi        :      2.73s CPU      2.73s WALL (     423 calls)
     g_psi        :      0.10s CPU      0.10s WALL (     313 calls)

     Called by h_psi:
     h_psi:calbec :      2.99s CPU      3.01s WALL (     423 calls)
     vloc_psi     :     39.31s CPU     39.81s WALL (     423 calls)
     add_vuspsi   :      2.49s CPU      2.49s WALL (     423 calls)

     General routines
     calbec       :      4.23s CPU      4.24s WALL (     528 calls)
     fft          :      4.72s CPU      4.82s WALL (     130 calls)
     ffts         :      0.26s CPU      0.26s WALL (      43 calls)
     fftw         :     40.80s CPU     41.29s WALL (   15061 calls)
     interpolate  :      1.00s CPU      1.02s WALL (      22 calls)

     Parallel routines
     fft_scatt_xy :      6.95s CPU      7.02s WALL (   15234 calls)
     fft_scatt_yz :      4.58s CPU      4.73s WALL (   15234 calls)

     PAW routines
     PAW_pot      :      1.16s CPU      1.17s WALL (      22 calls)
     PAW_symme    :      0.01s CPU      0.01s WALL (      43 calls)

     PWSCF        :   2m14.89s CPU   2m26.96s WALL


   This run was terminated on:  16: 3:46  10Jun2021            

=------------------------------------------------------------------------------=
   JOB DONE.
=------------------------------------------------------------------------------=
