
     Program PWSCF v.6.6 starts on 10Jun2021 at 16: 6:37 

     This program is part of the open-source Quantum ESPRESSO suite
     for quantum simulation of materials; please cite
         "P. Giannozzi et al., J. Phys.:Condens. Matter 21 395502 (2009);
         "P. Giannozzi et al., J. Phys.:Condens. Matter 29 465901 (2017);
          URL http://www.quantum-espresso.org", 
     in publications or presentations arising from this work. More details at
     http://www.quantum-espresso.org/quote

     Parallel version (MPI), running on     2 processors

     MPI processes distributed on     1 nodes
     R & G space division:  proc/nbgrp/npool/nimage =       2
     Fft bands division:     nmany     =       1
     Waiting for input...
     Reading input from standard input

     Current dimensions of program PWSCF are:
     Max number of different atomic species (ntypx) = 10
     Max number of k-points (npk) =  40000
     Max angular momentum in pseudopotentials (lmaxx) =  3
     file Nb.pz-spn-kjpaw_psl.1.0.0.UPF: wavefunction(s)  4S 4P 4D renormalized
     file S.pz-n-kjpaw_psl.0.1.UPF: wavefunction(s)  3P renormalized

     Subspace diagonalization in iterative solution of the eigenvalue problem:
     a serial algorithm will be used


     Parallelization info
     --------------------
     sticks:   dense  smooth     PW     G-vecs:    dense   smooth      PW
     Min         579     225     69               184729    46499    7551
     Max         580     226     70               184746    46524    7562
     Sum        1159     451    139               369475    93023   15113



     bravais-lattice index     =            4
     lattice parameter (alat)  =       6.4591  a.u.
     unit-cell volume          =    2731.0606 (a.u.)^3
     number of atoms/cell      =            3
     number of atomic types    =            2
     number of electrons       =        25.00
     number of Kohn-Sham states=           25
     kinetic-energy cutoff     =      40.0000  Ry
     charge density cutoff     =     400.0000  Ry
     convergence threshold     =      1.0E-08
     mixing beta               =       0.7000
     number of iterations used =            8  plain     mixing
     Exchange-correlation= SLA PZ NOGX NOGC
                           (   1   1   0   0   0   0   0)

     celldm(1)=   6.459084  celldm(2)=   0.000000  celldm(3)=  11.702750
     celldm(4)=   0.000000  celldm(5)=   0.000000  celldm(6)=   0.000000

     crystal axes: (cart. coord. in units of alat)
               a(1) = (   1.000000   0.000000   0.000000 )  
               a(2) = (  -0.500000   0.866025   0.000000 )  
               a(3) = (   0.000000   0.000000  11.702750 )  

     reciprocal axes: (cart. coord. in units 2 pi/alat)
               b(1) = (  1.000000  0.577350 -0.000000 )  
               b(2) = (  0.000000  1.154701  0.000000 )  
               b(3) = (  0.000000 -0.000000  0.085450 )  


     PseudoPot. # 1 for Nb read from file:
     ../Nb.pz-spn-kjpaw_psl.1.0.0.UPF
     MD5 check sum: 38c2e04b3cc915696ca8dc9f46a23270
     Pseudo is Projector augmented-wave + core cor, Zval = 13.0
     Generated using "atomic" code by A. Dal Corso v.6.2.2
     Shape of augmentation charge: PSQ
     Using radial grid of 1227 points,  6 beta functions with: 
                l(1) =   0
                l(2) =   0
                l(3) =   1
                l(4) =   1
                l(5) =   2
                l(6) =   2
     Q(r) pseudized with 0 coefficients 


     PseudoPot. # 2 for S  read from file:
     ../S.pz-n-kjpaw_psl.0.1.UPF
     MD5 check sum: c0b1682311cf098e03f7841691d9a679
     Pseudo is Projector augmented-wave + core cor, Zval =  6.0
     Generated using "atomic" code by A. Dal Corso v.5.0.2 svn rev. 9415
     Shape of augmentation charge: PSQ
     Using radial grid of 1151 points,  4 beta functions with: 
                l(1) =   0
                l(2) =   0
                l(3) =   1
                l(4) =   1
     Q(r) pseudized with 0 coefficients 


     atomic species   valence    mass     pseudopotential
        Nb            13.00    92.90600     Nb( 1.00)
        S              6.00    32.06500     S ( 1.00)

     12 Sym. Ops. (no inversion) found ( 6 have fractional translation)


                                    s                        frac. trans.

      isym =  1     identity                                     

 cryst.   s( 1) = (     1          0          0      )
                  (     0          1          0      )
                  (     0          0          1      )

 cart.    s( 1) = (  1.0000000  0.0000000  0.0000000 )
                  (  0.0000000  1.0000000  0.0000000 )
                  (  0.0000000  0.0000000  1.0000000 )


      isym =  2     180 deg rotation - cart. axis [0,1,0]        

 cryst.   s( 2) = (    -1          0          0      )    f =(  0.0000000 )
                  (     1          1          0      )       (  0.0000000 )
                  (     0          0         -1      )       (  0.5000000 )

 cart.    s( 2) = ( -1.0000000  0.0000000  0.0000000 )    f =(  0.0000000 )
                  (  0.0000000  1.0000000  0.0000000 )       (  0.0000000 )
                  (  0.0000000  0.0000000 -1.0000000 )       (  5.8513751 )


      isym =  3     120 deg rotation - cryst. axis [0,0,1]       

 cryst.   s( 3) = (     0          1          0      )
                  (    -1         -1          0      )
                  (     0          0          1      )

 cart.    s( 3) = ( -0.5000000 -0.8660254  0.0000000 )
                  (  0.8660254 -0.5000000  0.0000000 )
                  (  0.0000000  0.0000000  1.0000000 )


      isym =  4     120 deg rotation - cryst. axis [0,0,-1]      

 cryst.   s( 4) = (    -1         -1          0      )
                  (     1          0          0      )
                  (     0          0          1      )

 cart.    s( 4) = ( -0.5000000  0.8660254  0.0000000 )
                  ( -0.8660254 -0.5000000  0.0000000 )
                  (  0.0000000  0.0000000  1.0000000 )


      isym =  5     180 deg rotation - cryst. axis [1,-1,0]      

 cryst.   s( 5) = (     0         -1          0      )    f =(  0.0000000 )
                  (    -1          0          0      )       (  0.0000000 )
                  (     0          0         -1      )       (  0.5000000 )

 cart.    s( 5) = (  0.5000000 -0.8660254  0.0000000 )    f =(  0.0000000 )
                  ( -0.8660254 -0.5000000  0.0000000 )       (  0.0000000 )
                  (  0.0000000  0.0000000 -1.0000000 )       (  5.8513751 )


      isym =  6     180 deg rotation - cryst. axis [2,1,0]       

 cryst.   s( 6) = (     1          1          0      )    f =(  0.0000000 )
                  (     0         -1          0      )       (  0.0000000 )
                  (     0          0         -1      )       (  0.5000000 )

 cart.    s( 6) = (  0.5000000  0.8660254  0.0000000 )    f =( -0.0000000 )
                  (  0.8660254 -0.5000000  0.0000000 )       (  0.0000000 )
                  (  0.0000000  0.0000000 -1.0000000 )       (  5.8513751 )


      isym =  7     inv. 180 deg rotation - cart. axis [0,0,1]   

 cryst.   s( 7) = (     1          0          0      )    f =(  0.0000000 )
                  (     0          1          0      )       (  0.0000000 )
                  (     0          0         -1      )       (  0.5000000 )

 cart.    s( 7) = (  1.0000000  0.0000000  0.0000000 )    f =(  0.0000000 )
                  (  0.0000000  1.0000000  0.0000000 )       (  0.0000000 )
                  (  0.0000000  0.0000000 -1.0000000 )       (  5.8513751 )


      isym =  8     inv. 180 deg rotation - cart. axis [1,0,0]   

 cryst.   s( 8) = (    -1          0          0      )
                  (     1          1          0      )
                  (     0          0          1      )

 cart.    s( 8) = ( -1.0000000  0.0000000  0.0000000 )
                  (  0.0000000  1.0000000  0.0000000 )
                  (  0.0000000  0.0000000  1.0000000 )


      isym =  9     inv.  60 deg rotation - cryst. axis [0,0,1]  

 cryst.   s( 9) = (    -1         -1          0      )    f =(  0.0000000 )
                  (     1          0          0      )       (  0.0000000 )
                  (     0          0         -1      )       (  0.5000000 )

 cart.    s( 9) = ( -0.5000000  0.8660254  0.0000000 )    f =( -0.0000000 )
                  ( -0.8660254 -0.5000000  0.0000000 )       (  0.0000000 )
                  (  0.0000000  0.0000000 -1.0000000 )       (  5.8513751 )


      isym = 10     inv.  60 deg rotation - cryst. axis [0,0,-1] 

 cryst.   s(10) = (     0          1          0      )    f =(  0.0000000 )
                  (    -1         -1          0      )       (  0.0000000 )
                  (     0          0         -1      )       (  0.5000000 )

 cart.    s(10) = ( -0.5000000 -0.8660254  0.0000000 )    f =(  0.0000000 )
                  (  0.8660254 -0.5000000  0.0000000 )       (  0.0000000 )
                  (  0.0000000  0.0000000 -1.0000000 )       (  5.8513751 )


      isym = 11     inv. 180 deg rotation - cryst. axis [0,1,0]  

 cryst.   s(11) = (     1          1          0      )
                  (     0         -1          0      )
                  (     0          0          1      )

 cart.    s(11) = (  0.5000000  0.8660254  0.0000000 )
                  (  0.8660254 -0.5000000  0.0000000 )
                  (  0.0000000  0.0000000  1.0000000 )


      isym = 12     inv. 180 deg rotation - cryst. axis [1,1,0]  

 cryst.   s(12) = (     0         -1          0      )
                  (    -1          0          0      )
                  (     0          0          1      )

 cart.    s(12) = (  0.5000000 -0.8660254  0.0000000 )
                  ( -0.8660254 -0.5000000  0.0000000 )
                  (  0.0000000  0.0000000  1.0000000 )


     point group D_3h (-62m)
     there are  6 classes
     the character table:

       E     2C3   3C2   s_h   2S3   3s_v 
A'_1   1.00  1.00  1.00  1.00  1.00  1.00
A'_2   1.00  1.00 -1.00  1.00  1.00 -1.00
E'     2.00 -1.00  0.00  2.00 -1.00  0.00
A''1   1.00  1.00  1.00 -1.00 -1.00 -1.00
A''2   1.00  1.00 -1.00 -1.00 -1.00  1.00
E''    2.00 -1.00  0.00 -2.00  1.00  0.00

     the symmetry operations in each class and the name of the first element:

     E        1
          identity                                               
     2C3      3    4
          120 deg rotation - cryst. axis [0,0,1]                 
     3C2      2    6    5
          180 deg rotation - cart. axis [0,1,0]                  
     s_h      7
          inv. 180 deg rotation - cart. axis [0,0,1]             
     2S3      9   10
          inv.  60 deg rotation - cryst. axis [0,0,1]            
     3s_v     8   11   12
          inv. 180 deg rotation - cart. axis [1,0,0]             

   Cartesian axes

     site n.     atom                  positions (alat units)
         1           S   tau(   1) = (   0.0000000   0.5773503   4.3089526  )
         2           Nb  tau(   2) = (   0.0000000   0.0000000   2.9256875  )
         3           S   tau(   3) = (   0.0000000   0.5773503   1.5424225  )

   Crystallographic axes

     site n.     atom                  positions (cryst. coord.)
         1           S   tau(   1) = (  0.3333333  0.6666667  0.3682000  )
         2           Nb  tau(   2) = (  0.0000000  0.0000000  0.2500000  )
         3           S   tau(   3) = (  0.3333333  0.6666667  0.1318000  )

     number of k points=     8  Methfessel-Paxton smearing, width (Ry)=  0.0200
                       cart. coord. in units 2pi/alat
        k(    1) = (   0.0000000   0.0000000   0.0000000), wk =   0.0408163
        k(    2) = (   0.0000000   0.1649572   0.0000000), wk =   0.2448980
        k(    3) = (   0.0000000   0.3299144   0.0000000), wk =   0.2448980
        k(    4) = (   0.0000000   0.4948717   0.0000000), wk =   0.2448980
        k(    5) = (   0.1428571   0.2474358   0.0000000), wk =   0.2448980
        k(    6) = (   0.1428571   0.4123930   0.0000000), wk =   0.4897959
        k(    7) = (   0.1428571   0.5773503   0.0000000), wk =   0.2448980
        k(    8) = (   0.2857143   0.4948717   0.0000000), wk =   0.2448980

                       cryst. coord.
        k(    1) = (   0.0000000   0.0000000   0.0000000), wk =   0.0408163
        k(    2) = (   0.0000000   0.1428571   0.0000000), wk =   0.2448980
        k(    3) = (   0.0000000   0.2857143   0.0000000), wk =   0.2448980
        k(    4) = (   0.0000000   0.4285714   0.0000000), wk =   0.2448980
        k(    5) = (   0.1428571   0.1428571   0.0000000), wk =   0.2448980
        k(    6) = (   0.1428571   0.2857143   0.0000000), wk =   0.4897959
        k(    7) = (   0.1428571   0.4285714   0.0000000), wk =   0.2448980
        k(    8) = (   0.2857143   0.2857143   0.0000000), wk =   0.2448980

     Dense  grid:   369475 G-vectors     FFT dimensions: (  45,  45, 486)

     Smooth grid:    93023 G-vectors     FFT dimensions: (  25,  25, 320)

     Dynamical RAM for                 wfc:       2.23 MB

     Dynamical RAM for     wfc (w. buffer):      20.03 MB

     Dynamical RAM for           str. fact:       5.64 MB

     Dynamical RAM for           local pot:       0.00 MB

     Dynamical RAM for          nlocal pot:       3.03 MB

     Dynamical RAM for                qrad:       3.21 MB

     Dynamical RAM for          rho,v,vnew:      19.72 MB

     Dynamical RAM for               rhoin:       6.57 MB

     Dynamical RAM for            rho*nmix:      45.10 MB

     Dynamical RAM for           G-vectors:      10.93 MB

     Dynamical RAM for          h,s,v(r/c):       0.11 MB

     Dynamical RAM for          <psi|beta>:       0.01 MB

     Dynamical RAM for                 psi:       4.45 MB

     Dynamical RAM for                hpsi:       4.45 MB

     Dynamical RAM for                spsi:       4.45 MB

     Dynamical RAM for      wfcinit/wfcrot:       4.46 MB

     Dynamical RAM for           addusdens:     529.97 MB

     Estimated static dynamical RAM per process >     141.45 MB

     Estimated max dynamical RAM per process >     671.42 MB

     Estimated total dynamical RAM >       1.31 GB

     Initial potential from superposition of free atoms

     starting charge   24.99887, renormalised to   25.00000

     negative rho (up, down):  3.555E-04 0.000E+00
     Starting wfcs are   21 randomized atomic wfcs +    4 random wfcs
     Checking if some PAW data can be deallocated... 
       PAW data deallocated on    1 nodes for type:  1

     total cpu time spent up to now is        5.8 secs

     Self-consistent Calculation

     iteration #  1     ecut=    40.00 Ry     beta= 0.70
     Davidson diagonalization with overlap
     ethr =  1.00E-02,  avg # of iterations =  9.8

     negative rho (up, down):  4.231E-04 0.000E+00

     total cpu time spent up to now is       17.4 secs

     total energy              =    -450.98399661 Ry
     estimated scf accuracy    <       2.35986561 Ry

     iteration #  2     ecut=    40.00 Ry     beta= 0.70
     Davidson diagonalization with overlap
     ethr =  9.44E-03,  avg # of iterations =  5.6

     negative rho (up, down):  7.101E-04 0.000E+00

     total cpu time spent up to now is       29.8 secs

     total energy              =    -447.27987549 Ry
     estimated scf accuracy    <     208.25915729 Ry

     iteration #  3     ecut=    40.00 Ry     beta= 0.70
     Davidson diagonalization with overlap
     ethr =  9.44E-03,  avg # of iterations =  5.9

     negative rho (up, down):  5.301E-04 0.000E+00

     total cpu time spent up to now is       42.1 secs

     total energy              =    -451.99491465 Ry
     estimated scf accuracy    <      24.12428933 Ry

     iteration #  4     ecut=    40.00 Ry     beta= 0.70
     Davidson diagonalization with overlap
     ethr =  9.44E-03,  avg # of iterations =  3.2

     negative rho (up, down):  4.504E-04 0.000E+00

     total cpu time spent up to now is       51.0 secs

     total energy              =    -452.58748298 Ry
     estimated scf accuracy    <      11.93797508 Ry

     iteration #  5     ecut=    40.00 Ry     beta= 0.70
     Davidson diagonalization with overlap
     ethr =  9.44E-03,  avg # of iterations =  1.0

     negative rho (up, down):  4.293E-04 0.000E+00

     total cpu time spent up to now is       59.0 secs

     total energy              =    -453.01822807 Ry
     estimated scf accuracy    <       3.36870881 Ry

     iteration #  6     ecut=    40.00 Ry     beta= 0.70
     Davidson diagonalization with overlap
     ethr =  9.44E-03,  avg # of iterations =  1.4

     negative rho (up, down):  4.306E-04 0.000E+00

     total cpu time spent up to now is       67.0 secs

     total energy              =    -452.94792715 Ry
     estimated scf accuracy    <       2.43611384 Ry

     iteration #  7     ecut=    40.00 Ry     beta= 0.70
     Davidson diagonalization with overlap
     ethr =  9.44E-03,  avg # of iterations =  1.0

     negative rho (up, down):  4.323E-04 0.000E+00

     total cpu time spent up to now is       74.9 secs

     total energy              =    -452.97613737 Ry
     estimated scf accuracy    <       0.06444538 Ry

     iteration #  8     ecut=    40.00 Ry     beta= 0.70
     Davidson diagonalization with overlap
     ethr =  2.58E-04,  avg # of iterations =  7.4

     negative rho (up, down):  4.331E-04 0.000E+00

     total cpu time spent up to now is       85.0 secs

     total energy              =    -452.98191058 Ry
     estimated scf accuracy    <       0.20166864 Ry

     iteration #  9     ecut=    40.00 Ry     beta= 0.70
     Davidson diagonalization with overlap
     ethr =  2.58E-04,  avg # of iterations =  1.0

     negative rho (up, down):  4.332E-04 0.000E+00

     total cpu time spent up to now is       93.0 secs

     total energy              =    -452.98305885 Ry
     estimated scf accuracy    <       0.47102726 Ry

     iteration # 10     ecut=    40.00 Ry     beta= 0.70
     Davidson diagonalization with overlap
     ethr =  2.58E-04,  avg # of iterations =  1.0

     negative rho (up, down):  4.359E-04 0.000E+00

     total cpu time spent up to now is      100.9 secs

     total energy              =    -452.97372691 Ry
     estimated scf accuracy    <       0.45669843 Ry

     iteration # 11     ecut=    40.00 Ry     beta= 0.70
     Davidson diagonalization with overlap
     ethr =  2.58E-04,  avg # of iterations =  1.0

     negative rho (up, down):  4.551E-04 0.000E+00

     total cpu time spent up to now is      108.9 secs

     total energy              =    -452.96156989 Ry
     estimated scf accuracy    <       0.06103747 Ry

     iteration # 12     ecut=    40.00 Ry     beta= 0.70
     Davidson diagonalization with overlap
     ethr =  2.44E-04,  avg # of iterations =  1.0

     negative rho (up, down):  4.668E-04 0.000E+00

     total cpu time spent up to now is      116.8 secs

     total energy              =    -452.96914480 Ry
     estimated scf accuracy    <       0.19453787 Ry

     iteration # 13     ecut=    40.00 Ry     beta= 0.70
     Davidson diagonalization with overlap
     ethr =  2.44E-04,  avg # of iterations =  1.0

     negative rho (up, down):  4.657E-04 0.000E+00

     total cpu time spent up to now is      124.8 secs

     total energy              =    -452.96731254 Ry
     estimated scf accuracy    <       0.02722812 Ry

     iteration # 14     ecut=    40.00 Ry     beta= 0.70
     Davidson diagonalization with overlap
     ethr =  1.09E-04,  avg # of iterations =  1.0

     negative rho (up, down):  4.671E-04 0.000E+00

     total cpu time spent up to now is      132.8 secs

     total energy              =    -452.96685434 Ry
     estimated scf accuracy    <       0.00725527 Ry

     iteration # 15     ecut=    40.00 Ry     beta= 0.70
     Davidson diagonalization with overlap
     ethr =  2.90E-05,  avg # of iterations =  1.0

     negative rho (up, down):  4.678E-04 0.000E+00

     total cpu time spent up to now is      140.8 secs

     total energy              =    -452.96740040 Ry
     estimated scf accuracy    <       0.00047855 Ry

     iteration # 16     ecut=    40.00 Ry     beta= 0.70
     Davidson diagonalization with overlap
     c_bands:  1 eigenvalues not converged
     ethr =  1.91E-06,  avg # of iterations =  7.9

     negative rho (up, down):  4.683E-04 0.000E+00

     total cpu time spent up to now is      150.0 secs

     total energy              =    -452.96737899 Ry
     estimated scf accuracy    <       0.00040384 Ry

     iteration # 17     ecut=    40.00 Ry     beta= 0.70
     Davidson diagonalization with overlap
     ethr =  1.62E-06,  avg # of iterations =  1.1

     negative rho (up, down):  4.683E-04 0.000E+00

     total cpu time spent up to now is      157.9 secs

     total energy              =    -452.96739143 Ry
     estimated scf accuracy    <       0.00001084 Ry

     iteration # 18     ecut=    40.00 Ry     beta= 0.70
     Davidson diagonalization with overlap
     ethr =  4.34E-08,  avg # of iterations =  1.9

     negative rho (up, down):  4.687E-04 0.000E+00

     total cpu time spent up to now is      166.4 secs

     total energy              =    -452.96738890 Ry
     estimated scf accuracy    <       0.00000809 Ry

     iteration # 19     ecut=    40.00 Ry     beta= 0.70
     Davidson diagonalization with overlap
     ethr =  3.24E-08,  avg # of iterations =  2.0

     negative rho (up, down):  4.688E-04 0.000E+00

     total cpu time spent up to now is      175.0 secs

     total energy              =    -452.96738998 Ry
     estimated scf accuracy    <       0.00000287 Ry

     iteration # 20     ecut=    40.00 Ry     beta= 0.70
     Davidson diagonalization with overlap
     ethr =  1.15E-08,  avg # of iterations =  1.0

     negative rho (up, down):  4.689E-04 0.000E+00

     total cpu time spent up to now is      183.0 secs

     total energy              =    -452.96739000 Ry
     estimated scf accuracy    <       0.00000058 Ry

     iteration # 21     ecut=    40.00 Ry     beta= 0.70
     Davidson diagonalization with overlap
     ethr =  2.30E-09,  avg # of iterations =  1.4

     negative rho (up, down):  4.689E-04 0.000E+00

     total cpu time spent up to now is      191.2 secs

     total energy              =    -452.96739002 Ry
     estimated scf accuracy    <       0.00000030 Ry

     iteration # 22     ecut=    40.00 Ry     beta= 0.70
     Davidson diagonalization with overlap
     ethr =  1.21E-09,  avg # of iterations =  1.0

     negative rho (up, down):  4.688E-04 0.000E+00

     total cpu time spent up to now is      199.0 secs

     End of self-consistent calculation

          k = 0.0000 0.0000 0.0000 ( 11841 PWs)   bands (ev):

   -60.2174 -36.5507 -35.9808 -35.9808 -16.1424 -16.1424  -7.9971  -5.9217
    -5.9104  -4.8281  -4.3393  -4.3393  -3.4519  -3.4519  -3.4518  -3.4518
    -3.2603  -3.2603  -3.0179   1.4087   1.8357   2.3368   2.5676   2.5734
     3.0999

     occupation numbers 
     1.0000   1.0000   1.0000   1.0000   1.0000   1.0000   1.0000   1.0000
     1.0000   0.9224  -0.0353  -0.0353  -0.0000  -0.0000  -0.0000  -0.0000
    -0.0000  -0.0000  -0.0000  -0.0000  -0.0000  -0.0000  -0.0000  -0.0000
    -0.0000

          k = 0.0000 0.1650 0.0000 ( 11733 PWs)   bands (ev):

   -60.2135 -36.5456 -36.0227 -35.9910 -15.9861 -15.9860  -7.5312  -5.7395
    -5.7371  -4.7119  -4.5894  -4.3215  -4.2979  -4.1444  -4.0040  -3.6259
    -3.6256  -3.3417  -1.9539   1.7767   2.2386   2.6659   2.8500   2.9339
     3.3900

     occupation numbers 
     1.0000   1.0000   1.0000   1.0000   1.0000   1.0000   1.0000   1.0000
     1.0000   0.6484   0.2791  -0.0353  -0.0336  -0.0107  -0.0016  -0.0000
    -0.0000  -0.0000  -0.0000  -0.0000  -0.0000  -0.0000  -0.0000  -0.0000
    -0.0000

          k = 0.0000 0.3299 0.0000 ( 11721 PWs)   bands (ev):

   -60.2047 -36.5341 -36.1158 -36.0139 -15.5948 -15.5948  -6.5217  -5.8662
    -5.8634  -5.3409  -5.2988  -4.8650  -4.7039  -4.3726  -3.9784  -3.9781
    -3.5175  -3.1261  -0.6671   2.5967   3.1532   3.2783   3.7783   3.9676
     4.1958

     occupation numbers 
     1.0000   1.0000   1.0000   1.0000   1.0000   1.0000   1.0000   1.0000
     1.0000   1.0012   1.0023   0.9734   0.6245  -0.0308  -0.0011  -0.0011
    -0.0000  -0.0000  -0.0000  -0.0000  -0.0000  -0.0000  -0.0000  -0.0000
    -0.0000

          k = 0.0000 0.4949 0.0000 ( 11616 PWs)   bands (ev):

   -60.1976 -36.5249 -36.1894 -36.0321 -15.2269 -15.2269  -6.9530  -6.9516
    -6.2982  -5.3980  -4.8535  -4.7961  -4.2310  -4.2306  -4.1191  -3.6521
    -3.2913  -2.2164   0.5463   1.1721   3.0998   3.2489   3.5937   3.7833
     4.5187

     occupation numbers 
     1.0000   1.0000   1.0000   1.0000   1.0000   1.0000   1.0000   1.0000
     1.0000   1.0005   0.9594   0.8634  -0.0236  -0.0235  -0.0080  -0.0000
    -0.0000  -0.0000  -0.0000  -0.0000  -0.0000  -0.0000  -0.0000  -0.0000
    -0.0000

          k = 0.1429 0.2474 0.0000 ( 11733 PWs)   bands (ev):

   -60.2071 -36.5373 -36.0842 -36.0135 -15.7103 -15.7103  -6.6996  -5.4609
    -5.4237  -5.3312  -5.3294  -4.9645  -4.6807  -4.4746  -4.0675  -4.0673
    -3.5497  -3.2874  -0.9789   2.3822   2.9116   3.1626   3.4477   3.6390
     3.9947

     occupation numbers 
     1.0000   1.0000   1.0000   1.0000   1.0000   1.0000   1.0000   1.0001
     1.0003   1.0014   1.0015   1.0330   0.5537   0.0423  -0.0041  -0.0041
    -0.0000  -0.0000  -0.0000  -0.0000  -0.0000  -0.0000  -0.0000  -0.0000
    -0.0000

          k = 0.1429 0.4124 0.0000 ( 11650 PWs)   bands (ev):

   -60.1992 -36.5269 -36.1555 -36.0460 -15.3180 -15.3180  -6.4528  -6.4503
    -5.8836  -5.2305  -4.9957  -4.8589  -4.6630  -4.6446  -4.6419  -4.1823
    -3.8573  -2.0310   0.3328   2.5377   3.1968   3.6806   3.8211   4.5986
     4.8132

     occupation numbers 
     1.0000   1.0000   1.0000   1.0000   1.0000   1.0000   1.0000   1.0000
     1.0000   1.0060   1.0355   0.9662   0.4990   0.4420   0.4334  -0.0157
    -0.0001  -0.0000  -0.0000  -0.0000  -0.0000  -0.0000  -0.0000  -0.0000
    -0.0000

          k = 0.1429 0.5774 0.0000 ( 11608 PWs)   bands (ev):

   -60.1957 -36.5223 -36.1866 -36.0608 -15.1202 -15.1202  -6.9332  -6.9323
    -5.9500  -5.3146  -4.8762  -4.8741  -4.7211  -4.6868  -4.0483  -3.9977
    -3.7334  -0.8840   0.3866   1.2253   3.3113   3.3765   4.2386   4.3347
     4.3429

     occupation numbers 
     1.0000   1.0000   1.0000   1.0000   1.0000   1.0000   1.0000   1.0000
     1.0000   1.0018   0.9854   0.9832   0.6752   0.5726  -0.0032  -0.0015
    -0.0000  -0.0000  -0.0000  -0.0000  -0.0000  -0.0000  -0.0000  -0.0000
    -0.0000

          k = 0.2857 0.4949 0.0000 ( 11614 PWs)   bands (ev):

   -60.1948 -36.5212 -36.1576 -36.1017 -15.0758 -15.0758  -6.5200  -6.5193
    -5.6820  -5.6819  -5.1612  -5.0608  -4.7906  -4.6460  -4.6157  -4.4285
    -4.0200  -0.3367   1.0654   1.6823   2.4699   3.8176   4.0404   4.4857
     5.0344

     occupation numbers 
     1.0000   1.0000   1.0000   1.0000   1.0000   1.0000   1.0000   1.0000
     1.0000   1.0000   1.0133   1.0294   0.8518   0.4460   0.3544  -0.0045
    -0.0021  -0.0000  -0.0000  -0.0000  -0.0000  -0.0000  -0.0000  -0.0000
    -0.0000

     the Fermi energy is    -4.6633 ev

!    total energy              =    -452.96739003 Ry

     total all-electron energy =     -9223.171901 Ry
     estimated scf accuracy    <          3.1E-09 Ry
     smearing contrib. (-TS)   =      -0.00568069 Ry
     internal energy E=F+TS    =    -452.96170933 Ry

     The total energy is F=E-TS. E is the sum of the following terms:
     one-electron contribution =   -1481.47491629 Ry
     hartree contribution      =     740.17810230 Ry
     xc contribution           =     -31.35492967 Ry
     ewald contribution        =     613.75036080 Ry
     one-center paw contrib.   =    -294.06032648 Ry
      -> PAW hartree energy AE =      81.82341939 Ry
      -> PAW hartree energy PS =     -81.33802761 Ry
      -> PAW xc energy AE      =    -275.71749693 Ry
      -> PAW xc energy PS      =      22.84349209 Ry
      -> total E_H with PAW    =     740.66349409 Ry
      -> total E_XC with PAW   =    -284.22893450 Ry

     convergence has been achieved in  22 iterations

     Writing output data file ./tmp/NbS2.save/

     init_run     :      4.44s CPU      4.76s WALL (       1 calls)
     electrons    :    180.84s CPU    193.31s WALL (       1 calls)

     Called by init_run:
     wfcinit      :      1.80s CPU      1.83s WALL (       1 calls)
     wfcinit:atom :      0.02s CPU      0.02s WALL (       8 calls)
     wfcinit:wfcr :      1.74s CPU      1.77s WALL (       8 calls)
     potinit      :      0.63s CPU      0.68s WALL (       1 calls)
     hinit0       :      0.97s CPU      0.99s WALL (       1 calls)

     Called by electrons:
     c_bands      :    101.56s CPU    102.57s WALL (      22 calls)
     sum_band     :     52.50s CPU     58.91s WALL (      22 calls)
     v_of_rho     :      1.90s CPU      1.96s WALL (      23 calls)
     v_h          :      1.06s CPU      1.10s WALL (      23 calls)
     v_xc         :      0.84s CPU      0.86s WALL (      23 calls)
     newd         :     21.03s CPU     26.09s WALL (      23 calls)
     PAW_pot      :      1.21s CPU      1.22s WALL (      23 calls)
     mix_rho      :      2.33s CPU      2.38s WALL (      22 calls)

     Called by c_bands:
     init_us_2    :      0.85s CPU      0.86s WALL (     360 calls)
     cegterg      :     99.85s CPU    100.81s WALL (     176 calls)

     Called by sum_band:
     sum_band:wei :      0.01s CPU      0.01s WALL (      22 calls)
     sum_band:loo :     18.95s CPU     19.15s WALL (      22 calls)
     sum_band:buf :      0.20s CPU      0.21s WALL (     176 calls)
     sum_band:ini :      0.41s CPU      0.41s WALL (     176 calls)
     sum_band:cal :      2.02s CPU      2.02s WALL (     176 calls)
     sum_band:bec :      0.01s CPU      0.01s WALL (     176 calls)
     addusdens    :     31.89s CPU     38.02s WALL (      22 calls)
     addusd:skk   :      0.06s CPU      0.08s WALL (      44 calls)
     addusd:dgemm :      8.14s CPU     13.17s WALL (      44 calls)
     addusd:qvan2 :     22.14s CPU     22.14s WALL (      44 calls)

     Called by *egterg:
     cdiaghg      :      0.51s CPU      0.51s WALL (     644 calls)
     cegterg:over :      6.48s CPU      6.51s WALL (     468 calls)
     cegterg:upda :      3.59s CPU      3.60s WALL (     468 calls)
     cegterg:last :      8.06s CPU      8.06s WALL (     276 calls)
     h_psi        :     74.44s CPU     75.36s WALL (     652 calls)
     s_psi        :      4.53s CPU      4.55s WALL (     652 calls)
     g_psi        :      0.16s CPU      0.16s WALL (     468 calls)

     Called by h_psi:
     h_psi:calbec :      4.92s CPU      4.95s WALL (     652 calls)
     vloc_psi     :     64.91s CPU     65.79s WALL (     652 calls)
     add_vuspsi   :      4.17s CPU      4.17s WALL (     652 calls)

     General routines
     calbec       :      6.94s CPU      6.97s WALL (     828 calls)
     fft          :      4.90s CPU      5.08s WALL (     136 calls)
     ffts         :      0.26s CPU      0.27s WALL (      45 calls)
     fftw         :     67.24s CPU     68.12s WALL (   24984 calls)
     interpolate  :      1.02s CPU      1.07s WALL (      23 calls)

     Parallel routines
     fft_scatt_xy :     11.22s CPU     11.36s WALL (   25165 calls)
     fft_scatt_yz :      6.50s CPU      6.74s WALL (   25165 calls)

     PAW routines
     PAW_pot      :      1.21s CPU      1.22s WALL (      23 calls)
     PAW_symme    :      0.01s CPU      0.01s WALL (      45 calls)

     PWSCF        :   3m 6.33s CPU   3m19.45s WALL


   This run was terminated on:  16: 9:56  10Jun2021            

=------------------------------------------------------------------------------=
   JOB DONE.
=------------------------------------------------------------------------------=
