
     Program PWSCF v.6.6 starts on 10Jun2021 at 16:29: 4 

     This program is part of the open-source Quantum ESPRESSO suite
     for quantum simulation of materials; please cite
         "P. Giannozzi et al., J. Phys.:Condens. Matter 21 395502 (2009);
         "P. Giannozzi et al., J. Phys.:Condens. Matter 29 465901 (2017);
          URL http://www.quantum-espresso.org", 
     in publications or presentations arising from this work. More details at
     http://www.quantum-espresso.org/quote

     Parallel version (MPI), running on     2 processors

     MPI processes distributed on     1 nodes
     R & G space division:  proc/nbgrp/npool/nimage =       2
     Fft bands division:     nmany     =       1
     Waiting for input...
     Reading input from standard input

     Current dimensions of program PWSCF are:
     Max number of different atomic species (ntypx) = 10
     Max number of k-points (npk) =  40000
     Max angular momentum in pseudopotentials (lmaxx) =  3
     file Nb.pz-spn-kjpaw_psl.1.0.0.UPF: wavefunction(s)  4S 4P 4D renormalized
     file S.pz-n-kjpaw_psl.0.1.UPF: wavefunction(s)  3P renormalized

     Subspace diagonalization in iterative solution of the eigenvalue problem:
     a serial algorithm will be used


     Parallelization info
     --------------------
     sticks:   dense  smooth     PW     G-vecs:    dense   smooth      PW
     Min         579     225     69               184729    46499    7761
     Max         580     226     70               184746    46524    7784
     Sum        1159     451    139               369475    93023   15545



     bravais-lattice index     =            4
     lattice parameter (alat)  =       6.4591  a.u.
     unit-cell volume          =    2731.0606 (a.u.)^3
     number of atoms/cell      =            3
     number of atomic types    =            2
     number of electrons       =        25.00
     number of Kohn-Sham states=           25
     kinetic-energy cutoff     =      40.0000  Ry
     charge density cutoff     =     400.0000  Ry
     convergence threshold     =      1.0E-08
     mixing beta               =       0.7000
     number of iterations used =            8  plain     mixing
     Exchange-correlation= SLA PZ NOGX NOGC
                           (   1   1   0   0   0   0   0)

     celldm(1)=   6.459084  celldm(2)=   0.000000  celldm(3)=  11.702750
     celldm(4)=   0.000000  celldm(5)=   0.000000  celldm(6)=   0.000000

     crystal axes: (cart. coord. in units of alat)
               a(1) = (   1.000000   0.000000   0.000000 )  
               a(2) = (  -0.500000   0.866025   0.000000 )  
               a(3) = (   0.000000   0.000000  11.702750 )  

     reciprocal axes: (cart. coord. in units 2 pi/alat)
               b(1) = (  1.000000  0.577350 -0.000000 )  
               b(2) = (  0.000000  1.154701  0.000000 )  
               b(3) = (  0.000000 -0.000000  0.085450 )  


     PseudoPot. # 1 for Nb read from file:
     ../Nb.pz-spn-kjpaw_psl.1.0.0.UPF
     MD5 check sum: 38c2e04b3cc915696ca8dc9f46a23270
     Pseudo is Projector augmented-wave + core cor, Zval = 13.0
     Generated using "atomic" code by A. Dal Corso v.6.2.2
     Shape of augmentation charge: PSQ
     Using radial grid of 1227 points,  6 beta functions with: 
                l(1) =   0
                l(2) =   0
                l(3) =   1
                l(4) =   1
                l(5) =   2
                l(6) =   2
     Q(r) pseudized with 0 coefficients 


     PseudoPot. # 2 for S  read from file:
     ../S.pz-n-kjpaw_psl.0.1.UPF
     MD5 check sum: c0b1682311cf098e03f7841691d9a679
     Pseudo is Projector augmented-wave + core cor, Zval =  6.0
     Generated using "atomic" code by A. Dal Corso v.5.0.2 svn rev. 9415
     Shape of augmentation charge: PSQ
     Using radial grid of 1151 points,  4 beta functions with: 
                l(1) =   0
                l(2) =   0
                l(3) =   1
                l(4) =   1
     Q(r) pseudized with 0 coefficients 


     atomic species   valence    mass     pseudopotential
        Nb            13.00    92.90600     Nb( 1.00)
        S              6.00    32.06500     S ( 1.00)

     12 Sym. Ops. (no inversion) found ( 6 have fractional translation)


                                    s                        frac. trans.

      isym =  1     identity                                     

 cryst.   s( 1) = (     1          0          0      )
                  (     0          1          0      )
                  (     0          0          1      )

 cart.    s( 1) = (  1.0000000  0.0000000  0.0000000 )
                  (  0.0000000  1.0000000  0.0000000 )
                  (  0.0000000  0.0000000  1.0000000 )


      isym =  2     180 deg rotation - cart. axis [0,1,0]        

 cryst.   s( 2) = (    -1          0          0      )    f =(  0.0000000 )
                  (     1          1          0      )       (  0.0000000 )
                  (     0          0         -1      )       (  0.5000000 )

 cart.    s( 2) = ( -1.0000000  0.0000000  0.0000000 )    f =(  0.0000000 )
                  (  0.0000000  1.0000000  0.0000000 )       (  0.0000000 )
                  (  0.0000000  0.0000000 -1.0000000 )       (  5.8513751 )


      isym =  3     120 deg rotation - cryst. axis [0,0,1]       

 cryst.   s( 3) = (     0          1          0      )
                  (    -1         -1          0      )
                  (     0          0          1      )

 cart.    s( 3) = ( -0.5000000 -0.8660254  0.0000000 )
                  (  0.8660254 -0.5000000  0.0000000 )
                  (  0.0000000  0.0000000  1.0000000 )


      isym =  4     120 deg rotation - cryst. axis [0,0,-1]      

 cryst.   s( 4) = (    -1         -1          0      )
                  (     1          0          0      )
                  (     0          0          1      )

 cart.    s( 4) = ( -0.5000000  0.8660254  0.0000000 )
                  ( -0.8660254 -0.5000000  0.0000000 )
                  (  0.0000000  0.0000000  1.0000000 )


      isym =  5     180 deg rotation - cryst. axis [1,-1,0]      

 cryst.   s( 5) = (     0         -1          0      )    f =(  0.0000000 )
                  (    -1          0          0      )       (  0.0000000 )
                  (     0          0         -1      )       (  0.5000000 )

 cart.    s( 5) = (  0.5000000 -0.8660254  0.0000000 )    f =(  0.0000000 )
                  ( -0.8660254 -0.5000000  0.0000000 )       (  0.0000000 )
                  (  0.0000000  0.0000000 -1.0000000 )       (  5.8513751 )


      isym =  6     180 deg rotation - cryst. axis [2,1,0]       

 cryst.   s( 6) = (     1          1          0      )    f =(  0.0000000 )
                  (     0         -1          0      )       (  0.0000000 )
                  (     0          0         -1      )       (  0.5000000 )

 cart.    s( 6) = (  0.5000000  0.8660254  0.0000000 )    f =( -0.0000000 )
                  (  0.8660254 -0.5000000  0.0000000 )       (  0.0000000 )
                  (  0.0000000  0.0000000 -1.0000000 )       (  5.8513751 )


      isym =  7     inv. 180 deg rotation - cart. axis [0,0,1]   

 cryst.   s( 7) = (     1          0          0      )    f =(  0.0000000 )
                  (     0          1          0      )       (  0.0000000 )
                  (     0          0         -1      )       (  0.5000000 )

 cart.    s( 7) = (  1.0000000  0.0000000  0.0000000 )    f =(  0.0000000 )
                  (  0.0000000  1.0000000  0.0000000 )       (  0.0000000 )
                  (  0.0000000  0.0000000 -1.0000000 )       (  5.8513751 )


      isym =  8     inv. 180 deg rotation - cart. axis [1,0,0]   

 cryst.   s( 8) = (    -1          0          0      )
                  (     1          1          0      )
                  (     0          0          1      )

 cart.    s( 8) = ( -1.0000000  0.0000000  0.0000000 )
                  (  0.0000000  1.0000000  0.0000000 )
                  (  0.0000000  0.0000000  1.0000000 )


      isym =  9     inv.  60 deg rotation - cryst. axis [0,0,1]  

 cryst.   s( 9) = (    -1         -1          0      )    f =(  0.0000000 )
                  (     1          0          0      )       (  0.0000000 )
                  (     0          0         -1      )       (  0.5000000 )

 cart.    s( 9) = ( -0.5000000  0.8660254  0.0000000 )    f =( -0.0000000 )
                  ( -0.8660254 -0.5000000  0.0000000 )       (  0.0000000 )
                  (  0.0000000  0.0000000 -1.0000000 )       (  5.8513751 )


      isym = 10     inv.  60 deg rotation - cryst. axis [0,0,-1] 

 cryst.   s(10) = (     0          1          0      )    f =(  0.0000000 )
                  (    -1         -1          0      )       (  0.0000000 )
                  (     0          0         -1      )       (  0.5000000 )

 cart.    s(10) = ( -0.5000000 -0.8660254  0.0000000 )    f =(  0.0000000 )
                  (  0.8660254 -0.5000000  0.0000000 )       (  0.0000000 )
                  (  0.0000000  0.0000000 -1.0000000 )       (  5.8513751 )


      isym = 11     inv. 180 deg rotation - cryst. axis [0,1,0]  

 cryst.   s(11) = (     1          1          0      )
                  (     0         -1          0      )
                  (     0          0          1      )

 cart.    s(11) = (  0.5000000  0.8660254  0.0000000 )
                  (  0.8660254 -0.5000000  0.0000000 )
                  (  0.0000000  0.0000000  1.0000000 )


      isym = 12     inv. 180 deg rotation - cryst. axis [1,1,0]  

 cryst.   s(12) = (     0         -1          0      )
                  (    -1          0          0      )
                  (     0          0          1      )

 cart.    s(12) = (  0.5000000 -0.8660254  0.0000000 )
                  ( -0.8660254 -0.5000000  0.0000000 )
                  (  0.0000000  0.0000000  1.0000000 )


     point group D_3h (-62m)
     there are  6 classes
     the character table:

       E     2C3   3C2   s_h   2S3   3s_v 
A'_1   1.00  1.00  1.00  1.00  1.00  1.00
A'_2   1.00  1.00 -1.00  1.00  1.00 -1.00
E'     2.00 -1.00  0.00  2.00 -1.00  0.00
A''1   1.00  1.00  1.00 -1.00 -1.00 -1.00
A''2   1.00  1.00 -1.00 -1.00 -1.00  1.00
E''    2.00 -1.00  0.00 -2.00  1.00  0.00

     the symmetry operations in each class and the name of the first element:

     E        1
          identity                                               
     2C3      3    4
          120 deg rotation - cryst. axis [0,0,1]                 
     3C2      2    6    5
          180 deg rotation - cart. axis [0,1,0]                  
     s_h      7
          inv. 180 deg rotation - cart. axis [0,0,1]             
     2S3      9   10
          inv.  60 deg rotation - cryst. axis [0,0,1]            
     3s_v     8   11   12
          inv. 180 deg rotation - cart. axis [1,0,0]             

   Cartesian axes

     site n.     atom                  positions (alat units)
         1           S   tau(   1) = (   0.0000000   0.5773503   4.3089526  )
         2           Nb  tau(   2) = (   0.0000000   0.0000000   2.9256875  )
         3           S   tau(   3) = (   0.0000000   0.5773503   1.5424225  )

   Crystallographic axes

     site n.     atom                  positions (cryst. coord.)
         1           S   tau(   1) = (  0.3333333  0.6666667  0.3682000  )
         2           Nb  tau(   2) = (  0.0000000  0.0000000  0.2500000  )
         3           S   tau(   3) = (  0.3333333  0.6666667  0.1318000  )

     number of k points=    19  Methfessel-Paxton smearing, width (Ry)=  0.0200
                       cart. coord. in units 2pi/alat
        k(    1) = (   0.0000000   0.0000000   0.0000000), wk =   0.0138889
        k(    2) = (   0.0000000   0.0962250   0.0000000), wk =   0.0833333
        k(    3) = (   0.0000000   0.1924501   0.0000000), wk =   0.0833333
        k(    4) = (   0.0000000   0.2886751   0.0000000), wk =   0.0833333
        k(    5) = (   0.0000000   0.3849002   0.0000000), wk =   0.0833333
        k(    6) = (   0.0000000   0.4811252   0.0000000), wk =   0.0833333
        k(    7) = (   0.0000000  -0.5773503   0.0000000), wk =   0.0416667
        k(    8) = (   0.0833333   0.1443376   0.0000000), wk =   0.0833333
        k(    9) = (   0.0833333   0.2405626   0.0000000), wk =   0.1666667
        k(   10) = (   0.0833333   0.3367877   0.0000000), wk =   0.1666667
        k(   11) = (   0.0833333   0.4330127   0.0000000), wk =   0.1666667
        k(   12) = (   0.0833333   0.5292377   0.0000000), wk =   0.1666667
        k(   13) = (   0.1666667   0.2886751   0.0000000), wk =   0.0833333
        k(   14) = (   0.1666667   0.3849002   0.0000000), wk =   0.1666667
        k(   15) = (   0.1666667   0.4811252   0.0000000), wk =   0.1666667
        k(   16) = (   0.1666667   0.5773503   0.0000000), wk =   0.0833333
        k(   17) = (   0.2500000   0.4330127   0.0000000), wk =   0.0833333
        k(   18) = (   0.2500000   0.5292377   0.0000000), wk =   0.1666667
        k(   19) = (   0.3333333   0.5773503   0.0000000), wk =   0.0277778

                       cryst. coord.
        k(    1) = (   0.0000000   0.0000000   0.0000000), wk =   0.0138889
        k(    2) = (   0.0000000   0.0833333   0.0000000), wk =   0.0833333
        k(    3) = (   0.0000000   0.1666667   0.0000000), wk =   0.0833333
        k(    4) = (   0.0000000   0.2500000   0.0000000), wk =   0.0833333
        k(    5) = (   0.0000000   0.3333333   0.0000000), wk =   0.0833333
        k(    6) = (   0.0000000   0.4166667   0.0000000), wk =   0.0833333
        k(    7) = (   0.0000000  -0.5000000   0.0000000), wk =   0.0416667
        k(    8) = (   0.0833333   0.0833333   0.0000000), wk =   0.0833333
        k(    9) = (   0.0833333   0.1666667   0.0000000), wk =   0.1666667
        k(   10) = (   0.0833333   0.2500000   0.0000000), wk =   0.1666667
        k(   11) = (   0.0833333   0.3333333   0.0000000), wk =   0.1666667
        k(   12) = (   0.0833333   0.4166667   0.0000000), wk =   0.1666667
        k(   13) = (   0.1666667   0.1666667   0.0000000), wk =   0.0833333
        k(   14) = (   0.1666667   0.2500000   0.0000000), wk =   0.1666667
        k(   15) = (   0.1666667   0.3333333   0.0000000), wk =   0.1666667
        k(   16) = (   0.1666667   0.4166667   0.0000000), wk =   0.0833333
        k(   17) = (   0.2500000   0.2500000   0.0000000), wk =   0.0833333
        k(   18) = (   0.2500000   0.3333333   0.0000000), wk =   0.1666667
        k(   19) = (   0.3333333   0.3333333   0.0000000), wk =   0.0277778

     Dense  grid:   369475 G-vectors     FFT dimensions: (  45,  45, 486)

     Smooth grid:    93023 G-vectors     FFT dimensions: (  25,  25, 320)

     Dynamical RAM for                 wfc:       2.23 MB

     Dynamical RAM for     wfc (w. buffer):      44.50 MB

     Dynamical RAM for           str. fact:       5.64 MB

     Dynamical RAM for           local pot:       0.00 MB

     Dynamical RAM for          nlocal pot:       3.03 MB

     Dynamical RAM for                qrad:       3.21 MB

     Dynamical RAM for          rho,v,vnew:      19.72 MB

     Dynamical RAM for               rhoin:       6.57 MB

     Dynamical RAM for            rho*nmix:      45.10 MB

     Dynamical RAM for           G-vectors:      10.93 MB

     Dynamical RAM for          h,s,v(r/c):       0.11 MB

     Dynamical RAM for          <psi|beta>:       0.01 MB

     Dynamical RAM for                 psi:       4.45 MB

     Dynamical RAM for                hpsi:       4.45 MB

     Dynamical RAM for                spsi:       4.45 MB

     Dynamical RAM for      wfcinit/wfcrot:       4.46 MB

     Dynamical RAM for           addusdens:     529.97 MB

     Estimated static dynamical RAM per process >     165.93 MB

     Estimated max dynamical RAM per process >     695.90 MB

     Estimated total dynamical RAM >       1.36 GB

     Initial potential from superposition of free atoms

     starting charge   24.99887, renormalised to   25.00000

     negative rho (up, down):  3.555E-04 0.000E+00
     Starting wfcs are   21 randomized atomic wfcs +    4 random wfcs
     Checking if some PAW data can be deallocated... 
       PAW data deallocated on    1 nodes for type:  1

     total cpu time spent up to now is        8.5 secs

     Self-consistent Calculation

     iteration #  1     ecut=    40.00 Ry     beta= 0.70
     Davidson diagonalization with overlap
     ethr =  1.00E-02,  avg # of iterations =  9.2

     negative rho (up, down):  4.222E-04 0.000E+00

     total cpu time spent up to now is       31.7 secs

     total energy              =    -450.95676190 Ry
     estimated scf accuracy    <       2.39343452 Ry

     iteration #  2     ecut=    40.00 Ry     beta= 0.70
     Davidson diagonalization with overlap
     ethr =  9.57E-03,  avg # of iterations =  6.2

     negative rho (up, down):  7.187E-04 0.000E+00

     total cpu time spent up to now is       56.8 secs

     total energy              =    -447.31847696 Ry
     estimated scf accuracy    <     208.63613211 Ry

     iteration #  3     ecut=    40.00 Ry     beta= 0.70
     Davidson diagonalization with overlap
     ethr =  9.57E-03,  avg # of iterations =  5.7

     negative rho (up, down):  5.353E-04 0.000E+00

     total cpu time spent up to now is       81.6 secs

     total energy              =    -451.92724553 Ry
     estimated scf accuracy    <      25.47655537 Ry

     iteration #  4     ecut=    40.00 Ry     beta= 0.70
     Davidson diagonalization with overlap
     ethr =  9.57E-03,  avg # of iterations =  3.5

     negative rho (up, down):  4.609E-04 0.000E+00

     total cpu time spent up to now is       98.2 secs

     total energy              =    -452.61324812 Ry
     estimated scf accuracy    <      12.14392869 Ry

     iteration #  5     ecut=    40.00 Ry     beta= 0.70
     Davidson diagonalization with overlap
     ethr =  9.57E-03,  avg # of iterations =  1.4

     negative rho (up, down):  4.406E-04 0.000E+00

     total cpu time spent up to now is      112.9 secs

     total energy              =    -453.00312152 Ry
     estimated scf accuracy    <       2.33369678 Ry

     iteration #  6     ecut=    40.00 Ry     beta= 0.70
     Davidson diagonalization with overlap
     ethr =  9.33E-03,  avg # of iterations =  1.0

     negative rho (up, down):  4.419E-04 0.000E+00

     total cpu time spent up to now is      127.3 secs

     total energy              =    -452.94426991 Ry
     estimated scf accuracy    <       1.67467675 Ry

     iteration #  7     ecut=    40.00 Ry     beta= 0.70
     Davidson diagonalization with overlap
     ethr =  6.70E-03,  avg # of iterations =  1.4

     negative rho (up, down):  4.430E-04 0.000E+00

     total cpu time spent up to now is      142.1 secs

     total energy              =    -452.98440798 Ry
     estimated scf accuracy    <       0.11476366 Ry

     iteration #  8     ecut=    40.00 Ry     beta= 0.70
     Davidson diagonalization with overlap
     ethr =  4.59E-04,  avg # of iterations =  5.8

     negative rho (up, down):  4.436E-04 0.000E+00

     total cpu time spent up to now is      159.4 secs

     total energy              =    -452.98442070 Ry
     estimated scf accuracy    <       0.28128800 Ry

     iteration #  9     ecut=    40.00 Ry     beta= 0.70
     Davidson diagonalization with overlap
     ethr =  4.59E-04,  avg # of iterations =  1.0

     negative rho (up, down):  4.438E-04 0.000E+00

     total cpu time spent up to now is      173.9 secs

     total energy              =    -452.98432352 Ry
     estimated scf accuracy    <       0.24837245 Ry

     iteration # 10     ecut=    40.00 Ry     beta= 0.70
     Davidson diagonalization with overlap
     ethr =  4.59E-04,  avg # of iterations =  1.0

     negative rho (up, down):  4.443E-04 0.000E+00

     total cpu time spent up to now is      188.2 secs

     total energy              =    -452.98158677 Ry
     estimated scf accuracy    <       0.24378630 Ry

     iteration # 11     ecut=    40.00 Ry     beta= 0.70
     Davidson diagonalization with overlap
     ethr =  4.59E-04,  avg # of iterations =  1.0

     negative rho (up, down):  4.436E-04 0.000E+00

     total cpu time spent up to now is      202.6 secs

     total energy              =    -452.98616349 Ry
     estimated scf accuracy    <       0.16438434 Ry

     iteration # 12     ecut=    40.00 Ry     beta= 0.70
     Davidson diagonalization with overlap
     ethr =  4.59E-04,  avg # of iterations =  1.3

     negative rho (up, down):  4.509E-04 0.000E+00

     total cpu time spent up to now is      217.1 secs

     total energy              =    -452.96350966 Ry
     estimated scf accuracy    <       0.30309476 Ry

     iteration # 13     ecut=    40.00 Ry     beta= 0.70
     Davidson diagonalization with overlap
     ethr =  4.59E-04,  avg # of iterations =  1.9

     negative rho (up, down):  4.527E-04 0.000E+00

     total cpu time spent up to now is      232.8 secs

     total energy              =    -453.00460867 Ry
     estimated scf accuracy    <       0.37719620 Ry

     iteration # 14     ecut=    40.00 Ry     beta= 0.70
     Davidson diagonalization with overlap
     ethr =  4.59E-04,  avg # of iterations =  1.0

     negative rho (up, down):  4.511E-04 0.000E+00

     total cpu time spent up to now is      247.3 secs

     total energy              =    -452.97855219 Ry
     estimated scf accuracy    <       1.01887875 Ry

     iteration # 15     ecut=    40.00 Ry     beta= 0.70
     Davidson diagonalization with overlap
     ethr =  4.59E-04,  avg # of iterations =  1.0

     negative rho (up, down):  4.501E-04 0.000E+00

     total cpu time spent up to now is      261.8 secs

     total energy              =    -452.97489201 Ry
     estimated scf accuracy    <       0.12380553 Ry

     iteration # 16     ecut=    40.00 Ry     beta= 0.70
     Davidson diagonalization with overlap
     ethr =  4.59E-04,  avg # of iterations =  1.0

     negative rho (up, down):  4.570E-04 0.000E+00

     total cpu time spent up to now is      276.3 secs

     total energy              =    -452.97499270 Ry
     estimated scf accuracy    <       0.11146581 Ry

     iteration # 17     ecut=    40.00 Ry     beta= 0.70
     Davidson diagonalization with overlap
     ethr =  4.46E-04,  avg # of iterations =  1.0

     negative rho (up, down):  4.617E-04 0.000E+00

     total cpu time spent up to now is      290.7 secs

     total energy              =    -452.97523353 Ry
     estimated scf accuracy    <       0.01249653 Ry

     iteration # 18     ecut=    40.00 Ry     beta= 0.70
     Davidson diagonalization with overlap
     ethr =  5.00E-05,  avg # of iterations =  2.3

     negative rho (up, down):  4.684E-04 0.000E+00

     total cpu time spent up to now is      305.9 secs

     total energy              =    -452.96924118 Ry
     estimated scf accuracy    <       0.03416645 Ry

     iteration # 19     ecut=    40.00 Ry     beta= 0.70
     Davidson diagonalization with overlap
     ethr =  5.00E-05,  avg # of iterations =  2.4

     negative rho (up, down):  4.684E-04 0.000E+00

     total cpu time spent up to now is      322.3 secs

     total energy              =    -452.97242190 Ry
     estimated scf accuracy    <       0.02176062 Ry

     iteration # 20     ecut=    40.00 Ry     beta= 0.70
     Davidson diagonalization with overlap
     ethr =  5.00E-05,  avg # of iterations =  1.0

     negative rho (up, down):  4.675E-04 0.000E+00

     total cpu time spent up to now is      336.8 secs

     total energy              =    -452.97282294 Ry
     estimated scf accuracy    <       0.00006273 Ry

     iteration # 21     ecut=    40.00 Ry     beta= 0.70
     Davidson diagonalization with overlap
     ethr =  2.51E-07,  avg # of iterations =  6.6

     negative rho (up, down):  4.677E-04 0.000E+00

     total cpu time spent up to now is      355.4 secs

     total energy              =    -452.97283838 Ry
     estimated scf accuracy    <       0.00014585 Ry

     iteration # 22     ecut=    40.00 Ry     beta= 0.70
     Davidson diagonalization with overlap
     ethr =  2.51E-07,  avg # of iterations =  1.0

     negative rho (up, down):  4.681E-04 0.000E+00

     total cpu time spent up to now is      369.7 secs

     total energy              =    -452.97283831 Ry
     estimated scf accuracy    <       0.00005703 Ry

     iteration # 23     ecut=    40.00 Ry     beta= 0.70
     Davidson diagonalization with overlap
     ethr =  2.28E-07,  avg # of iterations =  1.0

     negative rho (up, down):  4.687E-04 0.000E+00

     total cpu time spent up to now is      384.0 secs

     total energy              =    -452.97283755 Ry
     estimated scf accuracy    <       0.00003034 Ry

     iteration # 24     ecut=    40.00 Ry     beta= 0.70
     Davidson diagonalization with overlap
     ethr =  1.21E-07,  avg # of iterations =  1.0

     negative rho (up, down):  4.684E-04 0.000E+00

     total cpu time spent up to now is      398.4 secs

     total energy              =    -452.97283789 Ry
     estimated scf accuracy    <       0.00000053 Ry

     iteration # 25     ecut=    40.00 Ry     beta= 0.70
     Davidson diagonalization with overlap
     ethr =  2.12E-09,  avg # of iterations =  2.0

     negative rho (up, down):  4.684E-04 0.000E+00

     total cpu time spent up to now is      414.7 secs

     total energy              =    -452.97283802 Ry
     estimated scf accuracy    <       0.00000007 Ry

     iteration # 26     ecut=    40.00 Ry     beta= 0.70
     Davidson diagonalization with overlap
     ethr =  2.82E-10,  avg # of iterations =  1.1

     negative rho (up, down):  4.684E-04 0.000E+00

     total cpu time spent up to now is      429.0 secs

     End of self-consistent calculation

          k = 0.0000 0.0000 0.0000 ( 11841 PWs)   bands (ev):

   -60.2163 -36.5456 -35.9871 -35.9871 -16.1561 -16.1560  -8.0484  -5.9294
    -5.9169  -4.8446  -4.3696  -4.3696  -3.4688  -3.4688  -3.4686  -3.4686
    -3.2744  -3.2744  -3.0549   1.4004   1.8373   2.3461   2.5768   2.5773
     3.1064

     occupation numbers 
     1.0000   1.0000   1.0000   1.0000   1.0000   1.0000   1.0000   1.0000
     1.0000   0.9437  -0.0321  -0.0321  -0.0000  -0.0000  -0.0000  -0.0000
    -0.0000  -0.0000  -0.0000  -0.0000  -0.0000  -0.0000  -0.0000  -0.0000
    -0.0000

          k = 0.0000 0.0962 0.0000 ( 11765 PWs)   bands (ev):

   -60.2149 -36.5438 -36.0021 -35.9908 -16.1015 -16.1014  -7.8853  -5.8648
    -5.8571  -4.8003  -4.4688  -4.2531  -3.8247  -3.7907  -3.7585  -3.5320
    -3.5318  -3.3037  -2.4839   1.5359   1.9858   2.4603   2.6737   2.7040
     3.2050

     occupation numbers 
     1.0000   1.0000   1.0000   1.0000   1.0000   1.0000   1.0000   1.0000
     1.0000   0.8666   0.0318  -0.0269  -0.0001  -0.0000  -0.0000  -0.0000
    -0.0000  -0.0000  -0.0000  -0.0000  -0.0000  -0.0000  -0.0000  -0.0000
    -0.0000

          k = 0.0000 0.1925 0.0000 ( 11745 PWs)   bands (ev):

   -60.2111 -36.5388 -36.0430 -36.0007 -15.9462 -15.9462  -7.4249  -5.6886
    -5.6820  -4.7297  -4.6671  -4.5838  -4.5401  -4.3164  -3.9169  -3.6972
    -3.6967  -3.3826  -1.7749   1.8824   2.3719   2.7815   2.9535   3.0724
     3.5053

     occupation numbers 
     1.0000   1.0000   1.0000   1.0000   1.0000   1.0000   1.0000   1.0000
     1.0000   0.6922   0.5034   0.2568   0.1510  -0.0349  -0.0003  -0.0000
    -0.0000  -0.0000  -0.0000  -0.0000  -0.0000  -0.0000  -0.0000  -0.0000
    -0.0000

          k = 0.0000 0.2887 0.0000 ( 11727 PWs)   bands (ev):

   -60.2058 -36.5320 -36.0983 -36.0143 -15.7174 -15.7174  -6.8000  -5.5242
    -5.5167  -5.4268  -5.4071  -4.8254  -4.7529  -4.4722  -3.9068  -3.9065
    -3.4874  -3.4051  -1.0260   2.3595   2.9134   3.1621   3.4768   3.6643
     4.0128

     occupation numbers 
     1.0000   1.0000   1.0000   1.0000   1.0000   1.0000   1.0000   1.0000
     1.0000   1.0003   1.0004   0.9135   0.7556   0.0360  -0.0003  -0.0003
    -0.0000  -0.0000  -0.0000  -0.0000  -0.0000  -0.0000  -0.0000  -0.0000
    -0.0000

          k = 0.0000 0.3849 0.0000 ( 11665 PWs)   bands (ev):

   -60.2006 -36.5252 -36.1531 -36.0279 -15.4649 -15.4648  -6.4019  -6.3340
    -6.3137  -5.2986  -5.1482  -4.9546  -4.4374  -4.2707  -4.1011  -4.1007
    -3.5890  -2.8094  -0.2595   2.7969   3.0548   3.3978   3.6055   4.1065
     4.2803

     occupation numbers 
     1.0000   1.0000   1.0000   1.0000   1.0000   1.0000   1.0000   1.0000
     1.0000   1.0024   1.0155   1.0303   0.0004  -0.0297  -0.0062  -0.0062
    -0.0000  -0.0000  -0.0000  -0.0000  -0.0000  -0.0000  -0.0000  -0.0000
    -0.0000

          k = 0.0000 0.4811 0.0000 ( 11632 PWs)   bands (ev):

   -60.1968 -36.5202 -36.1929 -36.0377 -15.2608 -15.2608  -6.9143  -6.9126
    -6.3347  -5.4077  -4.8862  -4.8212  -4.2350  -4.2346  -4.1481  -3.6614
    -3.4796  -2.2928   0.4334   1.3417   3.0807   3.2802   3.5935   3.8001
     4.4462

     occupation numbers 
     1.0000   1.0000   1.0000   1.0000   1.0000   1.0000   1.0000   1.0000
     1.0000   1.0004   0.9923   0.9063  -0.0238  -0.0237  -0.0108  -0.0000
    -0.0000  -0.0000  -0.0000  -0.0000  -0.0000  -0.0000  -0.0000  -0.0000
    -0.0000

          k = 0.0000-0.5774 0.0000 ( 11566 PWs)   bands (ev):

   -60.1954 -36.5183 -36.2073 -36.0413 -15.1812 -15.1812  -7.1225  -7.1214
    -6.3571  -5.4669  -4.7794  -4.7408  -4.2825  -4.2821  -4.0935  -3.6875
    -2.8441  -2.0791   0.4732   0.7624   3.0698   3.0760   3.5353   3.6829
     4.4324

     occupation numbers 
     1.0000   1.0000   1.0000   1.0000   1.0000   1.0000   1.0000   1.0000
     1.0000   1.0001   0.8209   0.7231  -0.0314  -0.0314  -0.0056  -0.0000
    -0.0000  -0.0000  -0.0000  -0.0000  -0.0000  -0.0000  -0.0000  -0.0000
    -0.0000

          k = 0.0833 0.1443 0.0000 ( 11759 PWs)   bands (ev):

   -60.2123 -36.5404 -36.0293 -35.9984 -15.9965 -15.9964  -7.5709  -5.7427
    -5.7405  -4.7209  -4.6453  -4.3341  -4.3090  -4.1703  -4.0137  -3.6716
    -3.6715  -3.3684  -1.9643   1.7757   2.2515   2.6796   2.8602   2.9516
     3.4044

     occupation numbers 
     1.0000   1.0000   1.0000   1.0000   1.0000   1.0000   1.0000   1.0000
     1.0000   0.6670   0.4357  -0.0355  -0.0344  -0.0136  -0.0018  -0.0000
    -0.0000  -0.0000  -0.0000  -0.0000  -0.0000  -0.0000  -0.0000  -0.0000
    -0.0000

          k = 0.0833 0.2406 0.0000 ( 11734 PWs)   bands (ev):

   -60.2077 -36.5345 -36.0754 -36.0121 -15.8039 -15.8038  -7.0004  -5.5398
    -5.5159  -5.1201  -5.1179  -4.8819  -4.5964  -4.5468  -3.9170  -3.9169
    -3.5526  -3.4868  -1.2761   2.1903   2.7185   3.0396   3.2572   3.4329
     3.8129

     occupation numbers 
     1.0000   1.0000   1.0000   1.0000   1.0000   1.0000   1.0000   1.0000
     1.0000   1.0199   1.0203   0.9883   0.2911   0.1659  -0.0003  -0.0003
    -0.0000  -0.0000  -0.0000  -0.0000  -0.0000  -0.0000  -0.0000  -0.0000
    -0.0000

          k = 0.0833 0.3368 0.0000 ( 11706 PWs)   bands (ev):

   -60.2025 -36.5277 -36.1281 -36.0280 -15.5612 -15.5612  -6.3996  -5.9526
    -5.9480  -5.3121  -5.2535  -4.8978  -4.8600  -4.3631  -4.1777  -4.1768
    -3.6219  -2.9333  -0.5200   2.6952   3.2840   3.3438   3.9314   4.1276
     4.1286

     occupation numbers 
     1.0000   1.0000   1.0000   1.0000   1.0000   1.0000   1.0000   1.0000
     1.0000   1.0020   1.0046   1.0021   0.9643  -0.0332  -0.0146  -0.0145
    -0.0000  -0.0000  -0.0000  -0.0000  -0.0000  -0.0000  -0.0000  -0.0000
    -0.0000

          k = 0.0833 0.4330 0.0000 ( 11627 PWs)   bands (ev):

   -60.1980 -36.5217 -36.1733 -36.0417 -15.3292 -15.3292  -6.6315  -6.6289
    -6.1888  -5.3162  -4.9817  -4.8774  -4.3865  -4.3851  -4.2390  -4.1840
    -3.7367  -2.2552   0.2402   2.1421   3.1101   3.5216   3.7359   4.1897
     4.5717

     occupation numbers 
     1.0000   1.0000   1.0000   1.0000   1.0000   1.0000   1.0000   1.0000
     1.0000   1.0019   1.0348   0.9839  -0.0277  -0.0282  -0.0245  -0.0156
    -0.0000  -0.0000  -0.0000  -0.0000  -0.0000  -0.0000  -0.0000  -0.0000
    -0.0000

          k = 0.0833 0.5292 0.0000 ( 11588 PWs)   bands (ev):

   -60.1954 -36.5183 -36.1993 -36.0496 -15.1837 -15.1837  -7.0129  -7.0118
    -6.2197  -5.4094  -4.7871  -4.7432  -4.4986  -4.4982  -4.0947  -3.8021
    -3.4548  -1.6562   0.6965   0.8248   3.1594   3.2524   3.8456   3.9831
     4.6141

     occupation numbers 
     1.0000   1.0000   1.0000   1.0000   1.0000   1.0000   1.0000   1.0000
     1.0000   1.0004   0.8384   0.7296   0.0733   0.0727  -0.0057  -0.0000
    -0.0000  -0.0000  -0.0000  -0.0000  -0.0000  -0.0000  -0.0000  -0.0000
    -0.0000

          k = 0.1667 0.2887 0.0000 ( 11711 PWs)   bands (ev):

   -60.2032 -36.5286 -36.1153 -36.0317 -15.5959 -15.5959  -6.3600  -5.7413
    -5.7355  -5.3287  -5.2589  -5.1205  -4.8352  -4.3956  -4.3096  -4.3076
    -3.6780  -2.9331  -0.5926   2.6474   3.2301   3.3425   3.8231   4.0219
     4.3396

     occupation numbers 
     1.0000   1.0000   1.0000   1.0000   1.0000   1.0000   1.0000   1.0000
     1.0000   1.0015   1.0043   1.0199   0.9296  -0.0244  -0.0345  -0.0343
    -0.0000  -0.0000  -0.0000  -0.0000  -0.0000  -0.0000  -0.0000  -0.0000
    -0.0000

          k = 0.1667 0.3849 0.0000 ( 11636 PWs)   bands (ev):

   -60.1987 -36.5227 -36.1529 -36.0533 -15.3692 -15.3692  -6.3168  -6.3132
    -5.8117  -5.2263  -5.1160  -4.9294  -4.8808  -4.7042  -4.7030  -4.2246
    -3.8898  -2.1503   0.1833   2.9373   3.1729   3.6908   3.7492   4.6387
     4.6608

     occupation numbers 
     1.0000   1.0000   1.0000   1.0000   1.0000   1.0000   1.0000   1.0000
     1.0000   1.0066   1.0206   1.0215   0.9873   0.6175   0.6140  -0.0220
    -0.0002  -0.0000  -0.0000  -0.0000  -0.0000  -0.0000  -0.0000  -0.0000
    -0.0000

          k = 0.1667 0.4811 0.0000 ( 11608 PWs)   bands (ev):

   -60.1954 -36.5183 -36.1796 -36.0698 -15.1887 -15.1887  -6.7326  -6.7315
    -5.8210  -5.2705  -4.9753  -4.9726  -4.8085  -4.7444  -4.3303  -4.0957
    -4.0527  -1.3049   0.9370   1.3163   3.3237   3.6609   4.0733   4.3324
     4.5872

     occupation numbers 
     1.0000   1.0000   1.0000   1.0000   1.0000   1.0000   1.0000   1.0000
     1.0000   1.0037   1.0341   1.0338   0.8828   0.7329  -0.0354  -0.0058
    -0.0032  -0.0000  -0.0000  -0.0000  -0.0000  -0.0000  -0.0000  -0.0000
    -0.0000

          k = 0.1667 0.5774 0.0000 ( 11632 PWs)   bands (ev):

   -60.1942 -36.5167 -36.1892 -36.0760 -15.1190 -15.1190  -6.8870  -6.8861
    -5.8668  -5.2952  -5.0688  -5.0659  -4.7105  -4.6768  -4.1134  -4.0539
    -3.9462  -0.6592   0.3158   1.3264   3.3497   3.4377   3.8570   4.4467
     4.5231

     occupation numbers 
     1.0000   1.0000   1.0000   1.0000   1.0000   1.0000   1.0000   1.0000
     1.0000   1.0026   1.0285   1.0290   0.6362   0.5337  -0.0072  -0.0033
    -0.0006  -0.0000  -0.0000  -0.0000  -0.0000  -0.0000  -0.0000  -0.0000
    -0.0000

          k = 0.2500 0.4330 0.0000 ( 11599 PWs)   bands (ev):

   -60.1954 -36.5183 -36.1663 -36.0833 -15.1912 -15.1912  -6.5282  -6.5270
    -5.2945  -5.2722  -5.2651  -5.1752  -5.0919  -4.7582  -4.7398  -4.2006
    -4.0983  -1.2054   0.9871   1.8365   3.2150   3.6323   3.9607   4.4239
     4.8212

     occupation numbers 
     1.0000   1.0000   1.0000   1.0000   1.0000   1.0000   1.0000   1.0000
     1.0026   1.0036   1.0040   1.0118   1.0247   0.7692   0.7203  -0.0181
    -0.0060  -0.0000  -0.0000  -0.0000  -0.0000  -0.0000  -0.0000  -0.0000
    -0.0000

          k = 0.2500 0.5292 0.0000 ( 11640 PWs)   bands (ev):

   -60.1935 -36.5158 -36.1685 -36.1062 -15.0827 -15.0827  -6.5976  -6.5969
    -5.6467  -5.6466  -5.3513  -5.1056  -4.7021  -4.6472  -4.5321  -4.4262
    -4.0306  -0.2402   0.7218   1.6968   2.5537   3.7903   3.8281   4.6323
     4.9645

     occupation numbers 
     1.0000   1.0000   1.0000   1.0000   1.0000   1.0000   1.0000   1.0000
     1.0000   1.0000   1.0011   1.0224   0.6113   0.4416   0.1343  -0.0080
    -0.0023  -0.0000  -0.0000  -0.0000  -0.0000  -0.0000  -0.0000  -0.0000
    -0.0000

          k = 0.3333 0.5774 0.0000 ( 11634 PWs)   bands (ev):

   -60.1928 -36.5149 -36.1420 -36.1420 -15.0432 -15.0432  -6.2231  -6.2216
    -6.2207  -6.2201  -4.9252  -4.9049  -4.8577  -4.8061  -4.5924  -4.5584
    -4.0117   0.1458   1.2449   1.2868   2.1344   3.7611   4.3473   4.4484
     4.5500

     occupation numbers 
     1.0000   1.0000   1.0000   1.0000   1.0000   1.0000   1.0000   1.0000
     1.0000   1.0000   1.0195   1.0074   0.9614   0.8782   0.2800   0.1927
    -0.0018  -0.0000  -0.0000  -0.0000  -0.0000  -0.0000  -0.0000  -0.0000
    -0.0000

     the Fermi energy is    -4.6660 ev

!    total energy              =    -452.97283802 Ry

     total all-electron energy =     -9223.177349 Ry
     estimated scf accuracy    <          8.3E-09 Ry
     smearing contrib. (-TS)   =      -0.00101302 Ry
     internal energy E=F+TS    =    -452.97182500 Ry

     The total energy is F=E-TS. E is the sum of the following terms:
     one-electron contribution =   -1481.45949341 Ry
     hartree contribution      =     740.15535420 Ry
     xc contribution           =     -31.35884144 Ry
     ewald contribution        =     613.75036080 Ry
     one-center paw contrib.   =    -294.05920514 Ry
      -> PAW hartree energy AE =      81.92711435 Ry
      -> PAW hartree energy PS =     -81.44175515 Ry
      -> PAW xc energy AE      =    -275.72604370 Ry
      -> PAW xc energy PS      =      22.85296488 Ry
      -> total E_H with PAW    =     740.64071339 Ry
      -> total E_XC with PAW   =    -284.23192026 Ry

     convergence has been achieved in  26 iterations

     Writing output data file ./tmp/NbS2.save/

     init_run     :      7.03s CPU      7.44s WALL (       1 calls)
     electrons    :    403.98s CPU    420.58s WALL (       1 calls)

     Called by init_run:
     wfcinit      :      4.40s CPU      4.47s WALL (       1 calls)
     wfcinit:atom :      0.04s CPU      0.04s WALL (      19 calls)
     wfcinit:wfcr :      4.27s CPU      4.33s WALL (      19 calls)
     potinit      :      0.64s CPU      0.68s WALL (       1 calls)
     hinit0       :      0.98s CPU      1.01s WALL (       1 calls)

     Called by electrons:
     c_bands      :    279.58s CPU    282.43s WALL (      26 calls)
     sum_band     :     92.81s CPU    100.74s WALL (      26 calls)
     v_of_rho     :      2.25s CPU      2.30s WALL (      27 calls)
     v_h          :      1.24s CPU      1.28s WALL (      27 calls)
     v_xc         :      1.00s CPU      1.01s WALL (      27 calls)
     newd         :     24.52s CPU     30.43s WALL (      27 calls)
     PAW_pot      :      1.43s CPU      1.43s WALL (      27 calls)
     mix_rho      :      2.81s CPU      2.86s WALL (      26 calls)

     Called by c_bands:
     init_us_2    :      2.41s CPU      2.45s WALL (    1007 calls)
     cegterg      :    274.71s CPU    277.39s WALL (     494 calls)

     Called by sum_band:
     sum_band:wei :      0.02s CPU      0.02s WALL (      26 calls)
     sum_band:loo :     53.51s CPU     54.15s WALL (      26 calls)
     sum_band:buf :      0.57s CPU      0.58s WALL (     494 calls)
     sum_band:ini :      1.17s CPU      1.17s WALL (     494 calls)
     sum_band:cal :      5.78s CPU      5.80s WALL (     494 calls)
     sum_band:bec :      0.01s CPU      0.01s WALL (     494 calls)
     addusdens    :     36.80s CPU     43.97s WALL (      26 calls)
     addusd:skk   :      0.05s CPU      0.08s WALL (      52 calls)
     addusd:dgemm :      9.60s CPU     15.29s WALL (      52 calls)
     addusd:qvan2 :     25.31s CPU     25.32s WALL (      52 calls)

     Called by *egterg:
     cdiaghg      :      1.33s CPU      1.33s WALL (    1689 calls)
     cegterg:over :     17.87s CPU     17.90s WALL (    1195 calls)
     cegterg:upda :      9.60s CPU      9.64s WALL (    1195 calls)
     cegterg:last :     21.32s CPU     21.33s WALL (     755 calls)
     h_psi        :    205.66s CPU    208.25s WALL (    1708 calls)
     s_psi        :     12.22s CPU     12.25s WALL (    1708 calls)
     g_psi        :      0.46s CPU      0.46s WALL (    1195 calls)

     Called by h_psi:
     h_psi:calbec :     13.62s CPU     13.69s WALL (    1708 calls)
     vloc_psi     :    179.41s CPU    181.88s WALL (    1708 calls)
     add_vuspsi   :     11.41s CPU     11.44s WALL (    1708 calls)

     General routines
     calbec       :     19.39s CPU     19.48s WALL (    2202 calls)
     fft          :      5.79s CPU      5.97s WALL (     160 calls)
     ffts         :      0.31s CPU      0.32s WALL (      53 calls)
     fftw         :    186.07s CPU    188.64s WALL (   69144 calls)
     interpolate  :      1.23s CPU      1.25s WALL (      27 calls)

     Parallel routines
     fft_scatt_xy :     30.06s CPU     30.43s WALL (   69357 calls)
     fft_scatt_yz :     20.58s CPU     21.06s WALL (   69357 calls)

     PAW routines
     PAW_pot      :      1.43s CPU      1.43s WALL (      27 calls)
     PAW_symme    :      0.01s CPU      0.01s WALL (      53 calls)

     PWSCF        :   6m52.19s CPU   7m 9.85s WALL


   This run was terminated on:  16:36:14  10Jun2021            

=------------------------------------------------------------------------------=
   JOB DONE.
=------------------------------------------------------------------------------=
