
     Program PWSCF v.6.6 starts on 10Jun2021 at 17:30:30 

     This program is part of the open-source Quantum ESPRESSO suite
     for quantum simulation of materials; please cite
         "P. Giannozzi et al., J. Phys.:Condens. Matter 21 395502 (2009);
         "P. Giannozzi et al., J. Phys.:Condens. Matter 29 465901 (2017);
          URL http://www.quantum-espresso.org", 
     in publications or presentations arising from this work. More details at
     http://www.quantum-espresso.org/quote

     Parallel version (MPI), running on     2 processors

     MPI processes distributed on     1 nodes
     R & G space division:  proc/nbgrp/npool/nimage =       2
     Fft bands division:     nmany     =       1
     Waiting for input...
     Reading input from standard input

     Current dimensions of program PWSCF are:
     Max number of different atomic species (ntypx) = 10
     Max number of k-points (npk) =  40000
     Max angular momentum in pseudopotentials (lmaxx) =  3
     file Nb.pz-spn-kjpaw_psl.1.0.0.UPF: wavefunction(s)  4S 4P 4D renormalized
     file S.pz-n-kjpaw_psl.0.1.UPF: wavefunction(s)  3P renormalized

     Subspace diagonalization in iterative solution of the eigenvalue problem:
     a serial algorithm will be used


     Parallelization info
     --------------------
     sticks:   dense  smooth     PW     G-vecs:    dense   smooth      PW
     Min         579     225     69               184729    46499    7703
     Max         580     226     70               184746    46524    7722
     Sum        1159     451    139               369475    93023   15425



     bravais-lattice index     =            4
     lattice parameter (alat)  =       6.4591  a.u.
     unit-cell volume          =    2731.0606 (a.u.)^3
     number of atoms/cell      =            3
     number of atomic types    =            2
     number of electrons       =        25.00
     number of Kohn-Sham states=           25
     kinetic-energy cutoff     =      40.0000  Ry
     charge density cutoff     =     400.0000  Ry
     convergence threshold     =      1.0E-08
     mixing beta               =       0.7000
     number of iterations used =            8  plain     mixing
     Exchange-correlation= SLA PZ NOGX NOGC
                           (   1   1   0   0   0   0   0)

     celldm(1)=   6.459084  celldm(2)=   0.000000  celldm(3)=  11.702750
     celldm(4)=   0.000000  celldm(5)=   0.000000  celldm(6)=   0.000000

     crystal axes: (cart. coord. in units of alat)
               a(1) = (   1.000000   0.000000   0.000000 )  
               a(2) = (  -0.500000   0.866025   0.000000 )  
               a(3) = (   0.000000   0.000000  11.702750 )  

     reciprocal axes: (cart. coord. in units 2 pi/alat)
               b(1) = (  1.000000  0.577350 -0.000000 )  
               b(2) = (  0.000000  1.154701  0.000000 )  
               b(3) = (  0.000000 -0.000000  0.085450 )  


     PseudoPot. # 1 for Nb read from file:
     ../Nb.pz-spn-kjpaw_psl.1.0.0.UPF
     MD5 check sum: 38c2e04b3cc915696ca8dc9f46a23270
     Pseudo is Projector augmented-wave + core cor, Zval = 13.0
     Generated using "atomic" code by A. Dal Corso v.6.2.2
     Shape of augmentation charge: PSQ
     Using radial grid of 1227 points,  6 beta functions with: 
                l(1) =   0
                l(2) =   0
                l(3) =   1
                l(4) =   1
                l(5) =   2
                l(6) =   2
     Q(r) pseudized with 0 coefficients 


     PseudoPot. # 2 for S  read from file:
     ../S.pz-n-kjpaw_psl.0.1.UPF
     MD5 check sum: c0b1682311cf098e03f7841691d9a679
     Pseudo is Projector augmented-wave + core cor, Zval =  6.0
     Generated using "atomic" code by A. Dal Corso v.5.0.2 svn rev. 9415
     Shape of augmentation charge: PSQ
     Using radial grid of 1151 points,  4 beta functions with: 
                l(1) =   0
                l(2) =   0
                l(3) =   1
                l(4) =   1
     Q(r) pseudized with 0 coefficients 


     atomic species   valence    mass     pseudopotential
        Nb            13.00    92.90600     Nb( 1.00)
        S              6.00    32.06500     S ( 1.00)

     12 Sym. Ops. (no inversion) found ( 6 have fractional translation)


                                    s                        frac. trans.

      isym =  1     identity                                     

 cryst.   s( 1) = (     1          0          0      )
                  (     0          1          0      )
                  (     0          0          1      )

 cart.    s( 1) = (  1.0000000  0.0000000  0.0000000 )
                  (  0.0000000  1.0000000  0.0000000 )
                  (  0.0000000  0.0000000  1.0000000 )


      isym =  2     180 deg rotation - cart. axis [0,1,0]        

 cryst.   s( 2) = (    -1          0          0      )    f =(  0.0000000 )
                  (     1          1          0      )       (  0.0000000 )
                  (     0          0         -1      )       (  0.5000000 )

 cart.    s( 2) = ( -1.0000000  0.0000000  0.0000000 )    f =(  0.0000000 )
                  (  0.0000000  1.0000000  0.0000000 )       (  0.0000000 )
                  (  0.0000000  0.0000000 -1.0000000 )       (  5.8513751 )


      isym =  3     120 deg rotation - cryst. axis [0,0,1]       

 cryst.   s( 3) = (     0          1          0      )
                  (    -1         -1          0      )
                  (     0          0          1      )

 cart.    s( 3) = ( -0.5000000 -0.8660254  0.0000000 )
                  (  0.8660254 -0.5000000  0.0000000 )
                  (  0.0000000  0.0000000  1.0000000 )


      isym =  4     120 deg rotation - cryst. axis [0,0,-1]      

 cryst.   s( 4) = (    -1         -1          0      )
                  (     1          0          0      )
                  (     0          0          1      )

 cart.    s( 4) = ( -0.5000000  0.8660254  0.0000000 )
                  ( -0.8660254 -0.5000000  0.0000000 )
                  (  0.0000000  0.0000000  1.0000000 )


      isym =  5     180 deg rotation - cryst. axis [1,-1,0]      

 cryst.   s( 5) = (     0         -1          0      )    f =(  0.0000000 )
                  (    -1          0          0      )       (  0.0000000 )
                  (     0          0         -1      )       (  0.5000000 )

 cart.    s( 5) = (  0.5000000 -0.8660254  0.0000000 )    f =(  0.0000000 )
                  ( -0.8660254 -0.5000000  0.0000000 )       (  0.0000000 )
                  (  0.0000000  0.0000000 -1.0000000 )       (  5.8513751 )


      isym =  6     180 deg rotation - cryst. axis [2,1,0]       

 cryst.   s( 6) = (     1          1          0      )    f =(  0.0000000 )
                  (     0         -1          0      )       (  0.0000000 )
                  (     0          0         -1      )       (  0.5000000 )

 cart.    s( 6) = (  0.5000000  0.8660254  0.0000000 )    f =( -0.0000000 )
                  (  0.8660254 -0.5000000  0.0000000 )       (  0.0000000 )
                  (  0.0000000  0.0000000 -1.0000000 )       (  5.8513751 )


      isym =  7     inv. 180 deg rotation - cart. axis [0,0,1]   

 cryst.   s( 7) = (     1          0          0      )    f =(  0.0000000 )
                  (     0          1          0      )       (  0.0000000 )
                  (     0          0         -1      )       (  0.5000000 )

 cart.    s( 7) = (  1.0000000  0.0000000  0.0000000 )    f =(  0.0000000 )
                  (  0.0000000  1.0000000  0.0000000 )       (  0.0000000 )
                  (  0.0000000  0.0000000 -1.0000000 )       (  5.8513751 )


      isym =  8     inv. 180 deg rotation - cart. axis [1,0,0]   

 cryst.   s( 8) = (    -1          0          0      )
                  (     1          1          0      )
                  (     0          0          1      )

 cart.    s( 8) = ( -1.0000000  0.0000000  0.0000000 )
                  (  0.0000000  1.0000000  0.0000000 )
                  (  0.0000000  0.0000000  1.0000000 )


      isym =  9     inv.  60 deg rotation - cryst. axis [0,0,1]  

 cryst.   s( 9) = (    -1         -1          0      )    f =(  0.0000000 )
                  (     1          0          0      )       (  0.0000000 )
                  (     0          0         -1      )       (  0.5000000 )

 cart.    s( 9) = ( -0.5000000  0.8660254  0.0000000 )    f =( -0.0000000 )
                  ( -0.8660254 -0.5000000  0.0000000 )       (  0.0000000 )
                  (  0.0000000  0.0000000 -1.0000000 )       (  5.8513751 )


      isym = 10     inv.  60 deg rotation - cryst. axis [0,0,-1] 

 cryst.   s(10) = (     0          1          0      )    f =(  0.0000000 )
                  (    -1         -1          0      )       (  0.0000000 )
                  (     0          0         -1      )       (  0.5000000 )

 cart.    s(10) = ( -0.5000000 -0.8660254  0.0000000 )    f =(  0.0000000 )
                  (  0.8660254 -0.5000000  0.0000000 )       (  0.0000000 )
                  (  0.0000000  0.0000000 -1.0000000 )       (  5.8513751 )


      isym = 11     inv. 180 deg rotation - cryst. axis [0,1,0]  

 cryst.   s(11) = (     1          1          0      )
                  (     0         -1          0      )
                  (     0          0          1      )

 cart.    s(11) = (  0.5000000  0.8660254  0.0000000 )
                  (  0.8660254 -0.5000000  0.0000000 )
                  (  0.0000000  0.0000000  1.0000000 )


      isym = 12     inv. 180 deg rotation - cryst. axis [1,1,0]  

 cryst.   s(12) = (     0         -1          0      )
                  (    -1          0          0      )
                  (     0          0          1      )

 cart.    s(12) = (  0.5000000 -0.8660254  0.0000000 )
                  ( -0.8660254 -0.5000000  0.0000000 )
                  (  0.0000000  0.0000000  1.0000000 )


     point group D_3h (-62m)
     there are  6 classes
     the character table:

       E     2C3   3C2   s_h   2S3   3s_v 
A'_1   1.00  1.00  1.00  1.00  1.00  1.00
A'_2   1.00  1.00 -1.00  1.00  1.00 -1.00
E'     2.00 -1.00  0.00  2.00 -1.00  0.00
A''1   1.00  1.00  1.00 -1.00 -1.00 -1.00
A''2   1.00  1.00 -1.00 -1.00 -1.00  1.00
E''    2.00 -1.00  0.00 -2.00  1.00  0.00

     the symmetry operations in each class and the name of the first element:

     E        1
          identity                                               
     2C3      3    4
          120 deg rotation - cryst. axis [0,0,1]                 
     3C2      2    6    5
          180 deg rotation - cart. axis [0,1,0]                  
     s_h      7
          inv. 180 deg rotation - cart. axis [0,0,1]             
     2S3      9   10
          inv.  60 deg rotation - cryst. axis [0,0,1]            
     3s_v     8   11   12
          inv. 180 deg rotation - cart. axis [1,0,0]             

   Cartesian axes

     site n.     atom                  positions (alat units)
         1           S   tau(   1) = (   0.0000000   0.5773503   4.3089526  )
         2           Nb  tau(   2) = (   0.0000000   0.0000000   2.9256875  )
         3           S   tau(   3) = (   0.0000000   0.5773503   1.5424225  )

   Crystallographic axes

     site n.     atom                  positions (cryst. coord.)
         1           S   tau(   1) = (  0.3333333  0.6666667  0.3682000  )
         2           Nb  tau(   2) = (  0.0000000  0.0000000  0.2500000  )
         3           S   tau(   3) = (  0.3333333  0.6666667  0.1318000  )

     number of k points=    40  Methfessel-Paxton smearing, width (Ry)=  0.0200
                       cart. coord. in units 2pi/alat
        k(    1) = (   0.0000000   0.0000000   0.0000000), wk =   0.0055402
        k(    2) = (   0.0000000   0.0607737   0.0000000), wk =   0.0332410
        k(    3) = (   0.0000000   0.1215474   0.0000000), wk =   0.0332410
        k(    4) = (   0.0000000   0.1823211   0.0000000), wk =   0.0332410
        k(    5) = (   0.0000000   0.2430949   0.0000000), wk =   0.0332410
        k(    6) = (   0.0000000   0.3038686   0.0000000), wk =   0.0332410
        k(    7) = (   0.0000000   0.3646423   0.0000000), wk =   0.0332410
        k(    8) = (   0.0000000   0.4254160   0.0000000), wk =   0.0332410
        k(    9) = (   0.0000000   0.4861897   0.0000000), wk =   0.0332410
        k(   10) = (   0.0000000   0.5469634   0.0000000), wk =   0.0332410
        k(   11) = (   0.0526316   0.0911606   0.0000000), wk =   0.0332410
        k(   12) = (   0.0526316   0.1519343   0.0000000), wk =   0.0664820
        k(   13) = (   0.0526316   0.2127080   0.0000000), wk =   0.0664820
        k(   14) = (   0.0526316   0.2734817   0.0000000), wk =   0.0664820
        k(   15) = (   0.0526316   0.3342554   0.0000000), wk =   0.0664820
        k(   16) = (   0.0526316   0.3950291   0.0000000), wk =   0.0664820
        k(   17) = (   0.0526316   0.4558028   0.0000000), wk =   0.0664820
        k(   18) = (   0.0526316   0.5165766   0.0000000), wk =   0.0664820
        k(   19) = (   0.0526316   0.5773503   0.0000000), wk =   0.0332410
        k(   20) = (   0.1052632   0.1823211   0.0000000), wk =   0.0332410
        k(   21) = (   0.1052632   0.2430949   0.0000000), wk =   0.0664820
        k(   22) = (   0.1052632   0.3038686   0.0000000), wk =   0.0664820
        k(   23) = (   0.1052632   0.3646423   0.0000000), wk =   0.0664820
        k(   24) = (   0.1052632   0.4254160   0.0000000), wk =   0.0664820
        k(   25) = (   0.1052632   0.4861897   0.0000000), wk =   0.0664820
        k(   26) = (   0.1052632   0.5469634   0.0000000), wk =   0.0664820
        k(   27) = (   0.1578947   0.2734817   0.0000000), wk =   0.0332410
        k(   28) = (   0.1578947   0.3342554   0.0000000), wk =   0.0664820
        k(   29) = (   0.1578947   0.3950291   0.0000000), wk =   0.0664820
        k(   30) = (   0.1578947   0.4558028   0.0000000), wk =   0.0664820
        k(   31) = (   0.1578947   0.5165766   0.0000000), wk =   0.0664820
        k(   32) = (   0.1578947   0.5773503   0.0000000), wk =   0.0332410
        k(   33) = (   0.2105263   0.3646423   0.0000000), wk =   0.0332410
        k(   34) = (   0.2105263   0.4254160   0.0000000), wk =   0.0664820
        k(   35) = (   0.2105263   0.4861897   0.0000000), wk =   0.0664820
        k(   36) = (   0.2105263   0.5469634   0.0000000), wk =   0.0664820
        k(   37) = (   0.2631579   0.4558028   0.0000000), wk =   0.0332410
        k(   38) = (   0.2631579   0.5165766   0.0000000), wk =   0.0664820
        k(   39) = (   0.2631579   0.5773503   0.0000000), wk =   0.0332410
        k(   40) = (   0.3157895   0.5469634   0.0000000), wk =   0.0332410

                       cryst. coord.
        k(    1) = (   0.0000000   0.0000000   0.0000000), wk =   0.0055402
        k(    2) = (   0.0000000   0.0526316   0.0000000), wk =   0.0332410
        k(    3) = (   0.0000000   0.1052632   0.0000000), wk =   0.0332410
        k(    4) = (   0.0000000   0.1578947   0.0000000), wk =   0.0332410
        k(    5) = (   0.0000000   0.2105263   0.0000000), wk =   0.0332410
        k(    6) = (   0.0000000   0.2631579   0.0000000), wk =   0.0332410
        k(    7) = (   0.0000000   0.3157895   0.0000000), wk =   0.0332410
        k(    8) = (   0.0000000   0.3684211   0.0000000), wk =   0.0332410
        k(    9) = (   0.0000000   0.4210526   0.0000000), wk =   0.0332410
        k(   10) = (   0.0000000   0.4736842   0.0000000), wk =   0.0332410
        k(   11) = (   0.0526316   0.0526316   0.0000000), wk =   0.0332410
        k(   12) = (   0.0526316   0.1052632   0.0000000), wk =   0.0664820
        k(   13) = (   0.0526316   0.1578947   0.0000000), wk =   0.0664820
        k(   14) = (   0.0526316   0.2105263   0.0000000), wk =   0.0664820
        k(   15) = (   0.0526316   0.2631579   0.0000000), wk =   0.0664820
        k(   16) = (   0.0526316   0.3157895   0.0000000), wk =   0.0664820
        k(   17) = (   0.0526316   0.3684211   0.0000000), wk =   0.0664820
        k(   18) = (   0.0526316   0.4210526   0.0000000), wk =   0.0664820
        k(   19) = (   0.0526316   0.4736842   0.0000000), wk =   0.0332410
        k(   20) = (   0.1052632   0.1052632   0.0000000), wk =   0.0332410
        k(   21) = (   0.1052632   0.1578947   0.0000000), wk =   0.0664820
        k(   22) = (   0.1052632   0.2105263   0.0000000), wk =   0.0664820
        k(   23) = (   0.1052632   0.2631579   0.0000000), wk =   0.0664820
        k(   24) = (   0.1052632   0.3157895   0.0000000), wk =   0.0664820
        k(   25) = (   0.1052632   0.3684211   0.0000000), wk =   0.0664820
        k(   26) = (   0.1052632   0.4210526   0.0000000), wk =   0.0664820
        k(   27) = (   0.1578947   0.1578947   0.0000000), wk =   0.0332410
        k(   28) = (   0.1578947   0.2105263   0.0000000), wk =   0.0664820
        k(   29) = (   0.1578947   0.2631579   0.0000000), wk =   0.0664820
        k(   30) = (   0.1578947   0.3157895   0.0000000), wk =   0.0664820
        k(   31) = (   0.1578947   0.3684211   0.0000000), wk =   0.0664820
        k(   32) = (   0.1578947   0.4210526   0.0000000), wk =   0.0332410
        k(   33) = (   0.2105263   0.2105263   0.0000000), wk =   0.0332410
        k(   34) = (   0.2105263   0.2631579   0.0000000), wk =   0.0664820
        k(   35) = (   0.2105263   0.3157895   0.0000000), wk =   0.0664820
        k(   36) = (   0.2105263   0.3684211   0.0000000), wk =   0.0664820
        k(   37) = (   0.2631579   0.2631579   0.0000000), wk =   0.0332410
        k(   38) = (   0.2631579   0.3157895   0.0000000), wk =   0.0664820
        k(   39) = (   0.2631579   0.3684211   0.0000000), wk =   0.0332410
        k(   40) = (   0.3157895   0.3157895   0.0000000), wk =   0.0332410

     Dense  grid:   369475 G-vectors     FFT dimensions: (  45,  45, 486)

     Smooth grid:    93023 G-vectors     FFT dimensions: (  25,  25, 320)

     Dynamical RAM for                 wfc:       2.23 MB

     Dynamical RAM for     wfc (w. buffer):      91.23 MB

     Dynamical RAM for           str. fact:       5.64 MB

     Dynamical RAM for           local pot:       0.00 MB

     Dynamical RAM for          nlocal pot:       3.03 MB

     Dynamical RAM for                qrad:       3.21 MB

     Dynamical RAM for          rho,v,vnew:      19.72 MB

     Dynamical RAM for               rhoin:       6.57 MB

     Dynamical RAM for            rho*nmix:      45.10 MB

     Dynamical RAM for           G-vectors:      10.93 MB

     Dynamical RAM for          h,s,v(r/c):       0.11 MB

     Dynamical RAM for          <psi|beta>:       0.01 MB

     Dynamical RAM for                 psi:       4.45 MB

     Dynamical RAM for                hpsi:       4.45 MB

     Dynamical RAM for                spsi:       4.45 MB

     Dynamical RAM for      wfcinit/wfcrot:       4.46 MB

     Dynamical RAM for           addusdens:     529.97 MB

     Estimated static dynamical RAM per process >     212.66 MB

     Estimated max dynamical RAM per process >     742.63 MB

     Estimated total dynamical RAM >       1.45 GB

     Initial potential from superposition of free atoms

     starting charge   24.99887, renormalised to   25.00000

     negative rho (up, down):  3.555E-04 0.000E+00
     Starting wfcs are   21 randomized atomic wfcs +    4 random wfcs
     Checking if some PAW data can be deallocated... 
       PAW data deallocated on    1 nodes for type:  1

     total cpu time spent up to now is       13.1 secs

     Self-consistent Calculation

     iteration #  1     ecut=    40.00 Ry     beta= 0.70
     Davidson diagonalization with overlap
     ethr =  1.00E-02,  avg # of iterations =  9.1

     negative rho (up, down):  4.223E-04 0.000E+00

     total cpu time spent up to now is       57.2 secs

     total energy              =    -450.96364922 Ry
     estimated scf accuracy    <       2.38540411 Ry

     iteration #  2     ecut=    40.00 Ry     beta= 0.70
     Davidson diagonalization with overlap
     ethr =  9.54E-03,  avg # of iterations =  6.1

     negative rho (up, down):  7.181E-04 0.000E+00

     total cpu time spent up to now is      106.4 secs

     total energy              =    -447.31370825 Ry
     estimated scf accuracy    <     208.52644096 Ry

     iteration #  3     ecut=    40.00 Ry     beta= 0.70
     Davidson diagonalization with overlap
     ethr =  9.54E-03,  avg # of iterations =  6.1

     negative rho (up, down):  5.374E-04 0.000E+00

     total cpu time spent up to now is      155.4 secs

     total energy              =    -451.90851671 Ry
     estimated scf accuracy    <      25.56586751 Ry

     iteration #  4     ecut=    40.00 Ry     beta= 0.70
     Davidson diagonalization with overlap
     ethr =  9.54E-03,  avg # of iterations =  3.0

     negative rho (up, down):  4.635E-04 0.000E+00

     total cpu time spent up to now is      186.1 secs

     total energy              =    -452.62696885 Ry
     estimated scf accuracy    <      12.69346002 Ry

     iteration #  5     ecut=    40.00 Ry     beta= 0.70
     Davidson diagonalization with overlap
     ethr =  9.54E-03,  avg # of iterations =  1.2

     negative rho (up, down):  4.409E-04 0.000E+00

     total cpu time spent up to now is      213.2 secs

     total energy              =    -453.00684295 Ry
     estimated scf accuracy    <       1.61654812 Ry

     iteration #  6     ecut=    40.00 Ry     beta= 0.70
     Davidson diagonalization with overlap
     ethr =  6.47E-03,  avg # of iterations =  1.1

     negative rho (up, down):  4.427E-04 0.000E+00

     total cpu time spent up to now is      240.1 secs

     total energy              =    -452.92424693 Ry
     estimated scf accuracy    <       1.85242246 Ry

     iteration #  7     ecut=    40.00 Ry     beta= 0.70
     Davidson diagonalization with overlap
     ethr =  6.47E-03,  avg # of iterations =  1.2

     negative rho (up, down):  4.449E-04 0.000E+00

     total cpu time spent up to now is      267.2 secs

     total energy              =    -452.98421509 Ry
     estimated scf accuracy    <       0.47787151 Ry

     iteration #  8     ecut=    40.00 Ry     beta= 0.70
     Davidson diagonalization with overlap
     ethr =  1.91E-03,  avg # of iterations =  1.7

     negative rho (up, down):  4.453E-04 0.000E+00

     total cpu time spent up to now is      294.6 secs

     total energy              =    -452.98455629 Ry
     estimated scf accuracy    <       0.32586393 Ry

     iteration #  9     ecut=    40.00 Ry     beta= 0.70
     Davidson diagonalization with overlap
     ethr =  1.30E-03,  avg # of iterations =  1.5

     negative rho (up, down):  4.443E-04 0.000E+00

     total cpu time spent up to now is      321.8 secs

     total energy              =    -452.98407116 Ry
     estimated scf accuracy    <       0.32621493 Ry

     iteration # 10     ecut=    40.00 Ry     beta= 0.70
     Davidson diagonalization with overlap
     ethr =  1.30E-03,  avg # of iterations =  1.4

     negative rho (up, down):  4.420E-04 0.000E+00

     total cpu time spent up to now is      349.0 secs

     total energy              =    -452.98420907 Ry
     estimated scf accuracy    <       0.31206741 Ry

     iteration # 11     ecut=    40.00 Ry     beta= 0.70
     Davidson diagonalization with overlap
     ethr =  1.25E-03,  avg # of iterations =  1.3

     negative rho (up, down):  4.465E-04 0.000E+00

     total cpu time spent up to now is      376.1 secs

     total energy              =    -452.98661459 Ry
     estimated scf accuracy    <       0.35654904 Ry

     iteration # 12     ecut=    40.00 Ry     beta= 0.70
     Davidson diagonalization with overlap
     ethr =  1.25E-03,  avg # of iterations =  1.0

     negative rho (up, down):  4.534E-04 0.000E+00

     total cpu time spent up to now is      402.9 secs

     total energy              =    -452.99243642 Ry
     estimated scf accuracy    <       0.35349793 Ry

     iteration # 13     ecut=    40.00 Ry     beta= 0.70
     Davidson diagonalization with overlap
     ethr =  1.25E-03,  avg # of iterations =  1.1

     negative rho (up, down):  4.424E-04 0.000E+00

     total cpu time spent up to now is      429.7 secs

     total energy              =    -452.96830341 Ry
     estimated scf accuracy    <       0.34527126 Ry

     iteration # 14     ecut=    40.00 Ry     beta= 0.70
     Davidson diagonalization with overlap
     ethr =  1.25E-03,  avg # of iterations =  1.1

     negative rho (up, down):  4.402E-04 0.000E+00

     total cpu time spent up to now is      456.8 secs

     total energy              =    -452.99277348 Ry
     estimated scf accuracy    <       0.04563649 Ry

     iteration # 15     ecut=    40.00 Ry     beta= 0.70
     Davidson diagonalization with overlap
     ethr =  1.83E-04,  avg # of iterations =  5.5

     negative rho (up, down):  4.398E-04 0.000E+00

     total cpu time spent up to now is      489.1 secs

     total energy              =    -452.99143286 Ry
     estimated scf accuracy    <       0.06469281 Ry

     iteration # 16     ecut=    40.00 Ry     beta= 0.70
     Davidson diagonalization with overlap
     ethr =  1.83E-04,  avg # of iterations =  1.3

     negative rho (up, down):  4.399E-04 0.000E+00

     total cpu time spent up to now is      516.1 secs

     total energy              =    -452.98952363 Ry
     estimated scf accuracy    <       0.06013172 Ry

     iteration # 17     ecut=    40.00 Ry     beta= 0.70
     Davidson diagonalization with overlap
     ethr =  1.83E-04,  avg # of iterations =  1.0

     negative rho (up, down):  4.642E-04 0.000E+00

     total cpu time spent up to now is      542.8 secs

     total energy              =    -452.95320221 Ry
     estimated scf accuracy    <       0.05815182 Ry

     iteration # 18     ecut=    40.00 Ry     beta= 0.70
     Davidson diagonalization with overlap
     ethr =  1.83E-04,  avg # of iterations =  3.1

     negative rho (up, down):  4.627E-04 0.000E+00

     total cpu time spent up to now is      577.6 secs

     total energy              =    -452.97023149 Ry
     estimated scf accuracy    <       0.08852236 Ry

     iteration # 19     ecut=    40.00 Ry     beta= 0.70
     Davidson diagonalization with overlap
     ethr =  1.83E-04,  avg # of iterations =  2.0

     negative rho (up, down):  4.648E-04 0.000E+00

     total cpu time spent up to now is      606.9 secs

     total energy              =    -452.97048822 Ry
     estimated scf accuracy    <       0.03713368 Ry

     iteration # 20     ecut=    40.00 Ry     beta= 0.70
     Davidson diagonalization with overlap
     ethr =  1.49E-04,  avg # of iterations =  1.0

     negative rho (up, down):  4.674E-04 0.000E+00

     total cpu time spent up to now is      633.6 secs

     total energy              =    -452.97184992 Ry
     estimated scf accuracy    <       0.00238920 Ry

     iteration # 21     ecut=    40.00 Ry     beta= 0.70
     Davidson diagonalization with overlap
     ethr =  9.56E-06,  avg # of iterations =  5.1

     negative rho (up, down):  4.681E-04 0.000E+00

     total cpu time spent up to now is      665.6 secs

     total energy              =    -452.97203184 Ry
     estimated scf accuracy    <       0.00018085 Ry

     iteration # 22     ecut=    40.00 Ry     beta= 0.70
     Davidson diagonalization with overlap
     ethr =  7.23E-07,  avg # of iterations =  4.2

     negative rho (up, down):  4.683E-04 0.000E+00

     total cpu time spent up to now is      696.7 secs

     total energy              =    -452.97204461 Ry
     estimated scf accuracy    <       0.00004039 Ry

     iteration # 23     ecut=    40.00 Ry     beta= 0.70
     Davidson diagonalization with overlap
     ethr =  1.62E-07,  avg # of iterations =  1.0

     negative rho (up, down):  4.685E-04 0.000E+00

     total cpu time spent up to now is      723.5 secs

     total energy              =    -452.97204592 Ry
     estimated scf accuracy    <       0.00000131 Ry

     iteration # 24     ecut=    40.00 Ry     beta= 0.70
     Davidson diagonalization with overlap
     ethr =  5.25E-09,  avg # of iterations =  2.5

     negative rho (up, down):  4.684E-04 0.000E+00

     total cpu time spent up to now is      754.3 secs

     total energy              =    -452.97204608 Ry
     estimated scf accuracy    <       0.00000008 Ry

     iteration # 25     ecut=    40.00 Ry     beta= 0.70
     Davidson diagonalization with overlap
     ethr =  3.20E-10,  avg # of iterations =  2.5

     negative rho (up, down):  4.684E-04 0.000E+00

     total cpu time spent up to now is      785.7 secs

     total energy              =    -452.97204609 Ry
     estimated scf accuracy    <       0.00000002 Ry

     iteration # 26     ecut=    40.00 Ry     beta= 0.70
     Davidson diagonalization with overlap
     ethr =  7.27E-11,  avg # of iterations =  2.0

     negative rho (up, down):  4.684E-04 0.000E+00

     total cpu time spent up to now is      816.6 secs

     End of self-consistent calculation

          k = 0.0000 0.0000 0.0000 ( 11841 PWs)   bands (ev):

   -60.2183 -36.5484 -35.9881 -35.9881 -16.1487 -16.1486  -8.0436  -5.9275
    -5.9148  -4.8438  -4.3674  -4.3674  -3.4594  -3.4594  -3.4593  -3.4593
    -3.2745  -3.2745  -3.0514   1.4018   1.8372   2.3442   2.5750   2.5761
     3.1050

     occupation numbers 
     1.0000   1.0000   1.0000   1.0000   1.0000   1.0000   1.0000   1.0000
     1.0000   0.9414  -0.0326  -0.0326  -0.0000  -0.0000  -0.0000  -0.0000
    -0.0000  -0.0000  -0.0000  -0.0000  -0.0000  -0.0000  -0.0000  -0.0000
    -0.0000

          k = 0.0000 0.0608 0.0000 ( 11781 PWs)   bands (ev):

   -60.2177 -36.5477 -35.9941 -35.9895 -16.1268 -16.1267  -7.9780  -5.9015
    -5.8908  -4.8259  -4.4086  -4.3207  -3.6082  -3.5929  -3.5605  -3.4852
    -3.4850  -3.2863  -2.7291   1.4577   1.8982   2.3900   2.6150   2.6261
     3.1441

     occupation numbers 
     1.0000   1.0000   1.0000   1.0000   1.0000   1.0000   1.0000   1.0000
     1.0000   0.9130  -0.0190  -0.0351  -0.0000  -0.0000  -0.0000  -0.0000
    -0.0000  -0.0000  -0.0000  -0.0000  -0.0000  -0.0000  -0.0000  -0.0000
    -0.0000

          k = 0.0000 0.1215 0.0000 ( 11739 PWs)   bands (ev):

   -60.2161 -36.5455 -36.0116 -35.9938 -16.0623 -16.0622  -7.7854  -5.8252
    -5.8202  -4.7748  -4.5193  -4.1826  -3.9889  -3.9552  -3.9076  -3.5583
    -3.5580  -3.3205  -2.2997   1.6118   2.0676   2.5253   2.7285   2.7766
     3.2623

     occupation numbers 
     1.0000   1.0000   1.0000   1.0000   1.0000   1.0000   1.0000   1.0000
     1.0000   0.8083   0.1078  -0.0152  -0.0012  -0.0007  -0.0003  -0.0000
    -0.0000  -0.0000  -0.0000  -0.0000  -0.0000  -0.0000  -0.0000  -0.0000
    -0.0000

          k = 0.0000 0.1823 0.0000 ( 11747 PWs)   bands (ev):

   -60.2135 -36.5422 -36.0386 -36.0004 -15.9593 -15.9593  -7.4800  -5.7086
    -5.7040  -4.7199  -4.6504  -4.4827  -4.4532  -4.2610  -3.9596  -3.6673
    -3.6669  -3.3726  -1.8493   1.8400   2.3219   2.7390   2.9136   3.0209
     3.4621

     occupation numbers 
     1.0000   1.0000   1.0000   1.0000   1.0000   1.0000   1.0000   1.0000
     1.0000   0.6616   0.4491   0.0486   0.0139  -0.0280  -0.0007  -0.0000
    -0.0000  -0.0000  -0.0000  -0.0000  -0.0000  -0.0000  -0.0000  -0.0000
    -0.0000

          k = 0.0000 0.2431 0.0000 ( 11723 PWs)   bands (ev):

   -60.2104 -36.5381 -36.0721 -36.0085 -15.8251 -15.8251  -7.0950  -5.5672
    -5.5503  -5.0569  -5.0534  -4.8009  -4.5624  -4.5580  -3.7967  -3.7965
    -3.6629  -3.4363  -1.3826   2.1237   2.6427   2.9901   3.1888   3.3554
     3.7453

     occupation numbers 
     1.0000   1.0000   1.0000   1.0000   1.0000   1.0000   1.0000   1.0000
     1.0000   1.0305   1.0310   0.8661   0.2002   0.1899  -0.0000  -0.0000
    -0.0000  -0.0000  -0.0000  -0.0000  -0.0000  -0.0000  -0.0000  -0.0000
    -0.0000

          k = 0.0000 0.3039 0.0000 ( 11725 PWs)   bands (ev):

   -60.2070 -36.5337 -36.1082 -36.0175 -15.6703 -15.6702  -6.7032  -5.6416
    -5.6388  -5.4028  -5.3735  -4.8055  -4.8050  -4.4410  -3.9306  -3.9302
    -3.5043  -3.3117  -0.9026   2.4431   3.0046   3.2111   3.5846   3.7747
     4.1059

     occupation numbers 
     1.0000   1.0000   1.0000   1.0000   1.0000   1.0000   1.0000   1.0000
     1.0000   1.0004   1.0007   0.8754   0.8744   0.0027  -0.0004  -0.0004
    -0.0000  -0.0000  -0.0000  -0.0000  -0.0000  -0.0000  -0.0000  -0.0000
    -0.0000

          k = 0.0000 0.3646 0.0000 ( 11681 PWs)   bands (ev):

   -60.2036 -36.5293 -36.1432 -36.0261 -15.5095 -15.5095  -6.4327  -6.1664
    -6.1607  -5.3012  -5.2067  -4.9464  -4.5687  -4.3155  -4.0547  -4.0543
    -3.5691  -2.9334  -0.4170   2.7483   3.2513   3.3305   3.7135   4.0965
     4.1749

     occupation numbers 
     1.0000   1.0000   1.0000   1.0000   1.0000   1.0000   1.0000   1.0000
     1.0000   1.0024   1.0084   1.0278   0.2158  -0.0348  -0.0033  -0.0033
    -0.0000  -0.0000  -0.0000  -0.0000  -0.0000  -0.0000  -0.0000  -0.0000
    -0.0000

          k = 0.0000 0.4254 0.0000 ( 11645 PWs)   bands (ev):

   -60.2008 -36.5255 -36.1732 -36.0335 -15.3612 -15.3612  -6.6113  -6.6072
    -6.3280  -5.3330  -5.0258  -4.9114  -4.2329  -4.1575  -4.1571  -4.0428
    -3.6241  -2.5685   0.0544   2.2749   3.0194   3.4259   3.6095   3.9677
     4.3313

     occupation numbers 
     1.0000   1.0000   1.0000   1.0000   1.0000   1.0000   1.0000   1.0000
     1.0000   1.0015   1.0343   1.0112  -0.0233  -0.0118  -0.0118  -0.0028
    -0.0000  -0.0000  -0.0000  -0.0000  -0.0000  -0.0000  -0.0000  -0.0000
    -0.0000

          k = 0.0000 0.4862 0.0000 ( 11630 PWs)   bands (ev):

   -60.1986 -36.5228 -36.1951 -36.0390 -15.2459 -15.2459  -6.9262  -6.9246
    -6.3328  -5.4119  -4.8740  -4.8119  -4.2305  -4.2301  -4.1423  -3.6638
    -3.4230  -2.2709   0.4667   1.2681   3.0855   3.2671   3.5948   3.7948
     4.4709

     occupation numbers 
     1.0000   1.0000   1.0000   1.0000   1.0000   1.0000   1.0000   1.0000
     1.0000   1.0004   0.9795   0.8879  -0.0229  -0.0228  -0.0100  -0.0000
    -0.0000  -0.0000  -0.0000  -0.0000  -0.0000  -0.0000  -0.0000  -0.0000
    -0.0000

          k = 0.0000 0.5470 0.0000 ( 11598 PWs)   bands (ev):

   -60.1975 -36.5213 -36.2067 -36.0418 -15.1824 -15.1824  -7.0923  -7.0911
    -6.3507  -5.4593  -4.7888  -4.7478  -4.2684  -4.2680  -4.0989  -3.6847
    -2.9195  -2.1006   0.5787   0.7288   3.0768   3.1046   3.5495   3.7012
     4.4619

     occupation numbers 
     1.0000   1.0000   1.0000   1.0000   1.0000   1.0000   1.0000   1.0000
     1.0000   1.0002   0.8405   0.7399  -0.0292  -0.0292  -0.0060  -0.0000
    -0.0000  -0.0000  -0.0000  -0.0000  -0.0000  -0.0000  -0.0000  -0.0000
    -0.0000

          k = 0.0526 0.0912 0.0000 ( 11745 PWs)   bands (ev):

   -60.2166 -36.5462 -36.0058 -35.9925 -16.0835 -16.0835  -7.8487  -5.8503
    -5.8434  -4.7911  -4.4869  -4.2262  -3.8754  -3.8363  -3.8052  -3.5389
    -3.5388  -3.3111  -2.4164   1.5625   2.0132   2.4806   2.6911   2.7269
     3.2238

     occupation numbers 
     1.0000   1.0000   1.0000   1.0000   1.0000   1.0000   1.0000   1.0000
     1.0000   0.8454   0.0545  -0.0222  -0.0002  -0.0001  -0.0000  -0.0000
    -0.0000  -0.0000  -0.0000  -0.0000  -0.0000  -0.0000  -0.0000  -0.0000
    -0.0000

          k = 0.0526 0.1519 0.0000 ( 11755 PWs)   bands (ev):

   -60.2145 -36.5435 -36.0277 -35.9983 -15.9998 -15.9998  -7.5984  -5.7522
    -5.7513  -4.7288  -4.6212  -4.2827  -4.2574  -4.1376  -4.0397  -3.6413
    -3.6411  -3.3590  -2.0078   1.7531   2.2243   2.6559   2.8396   2.9241
     3.3817

     occupation numbers 
     1.0000   1.0000   1.0000   1.0000   1.0000   1.0000   1.0000   1.0000
     1.0000   0.6875   0.3605  -0.0313  -0.0275  -0.0095  -0.0027  -0.0000
    -0.0000  -0.0000  -0.0000  -0.0000  -0.0000  -0.0000  -0.0000  -0.0000
    -0.0000

          k = 0.0526 0.2127 0.0000 ( 11744 PWs)   bands (ev):

   -60.2117 -36.5398 -36.0574 -36.0062 -15.8811 -15.8810  -7.2477  -5.6250
    -5.6122  -4.8222  -4.8039  -4.7726  -4.5960  -4.4427  -3.7783  -3.7751
    -3.7672  -3.4236  -1.5620   2.0093   2.5120   2.8918   3.0670   3.2137
     3.6240

     occupation numbers 
     1.0000   1.0000   1.0000   1.0000   1.0000   1.0000   1.0000   1.0000
     1.0000   0.9067   0.8721   0.8032   0.2879   0.0042  -0.0000  -0.0000
    -0.0000  -0.0000  -0.0000  -0.0000  -0.0000  -0.0000  -0.0000  -0.0000
    -0.0000

          k = 0.0526 0.2735 0.0000 ( 11730 PWs)   bands (ev):

   -60.2084 -36.5355 -36.0917 -36.0153 -15.7362 -15.7362  -6.8438  -5.4871
    -5.4616  -5.3539  -5.3525  -4.8693  -4.7026  -4.4967  -3.9221  -3.9218
    -3.4973  -3.4333  -1.0930   2.3138   2.8572   3.1287   3.4056   3.5917
     3.9511

     occupation numbers 
     1.0000   1.0000   1.0000   1.0000   1.0000   1.0000   1.0000   1.0001
     1.0001   1.0010   1.0011   0.9744   0.6102   0.0690  -0.0004  -0.0004
    -0.0000  -0.0000  -0.0000  -0.0000  -0.0000  -0.0000  -0.0000  -0.0000
    -0.0000

          k = 0.0526 0.3343 0.0000 ( 11707 PWs)   bands (ev):

   -60.2050 -36.5311 -36.1266 -36.0246 -15.5779 -15.5778  -6.4889  -5.9148
    -5.9114  -5.3301  -5.2789  -4.8931  -4.7824  -4.3756  -4.0652  -4.0647
    -3.5717  -3.0493  -0.6096   2.6374   3.2180   3.3079   3.8569   4.0490
     4.1577

     occupation numbers 
     1.0000   1.0000   1.0000   1.0000   1.0000   1.0000   1.0000   1.0000
     1.0000   1.0015   1.0033   0.9977   0.8262  -0.0310  -0.0038  -0.0038
    -0.0000  -0.0000  -0.0000  -0.0000  -0.0000  -0.0000  -0.0000  -0.0000
    -0.0000

          k = 0.0526 0.3950 0.0000 ( 11663 PWs)   bands (ev):

   -60.2019 -36.5271 -36.1586 -36.0332 -15.4224 -15.4224  -6.4048  -6.3918
    -6.2889  -5.2921  -5.1050  -4.9390  -4.4319  -4.2566  -4.1904  -4.1889
    -3.6389  -2.6485  -0.1255   2.7638   3.0136   3.4620   3.6198   4.1707
     4.4096

     occupation numbers 
     1.0000   1.0000   1.0000   1.0000   1.0000   1.0000   1.0000   1.0000
     1.0000   1.0027   1.0226   1.0252  -0.0045  -0.0273  -0.0164  -0.0162
    -0.0000  -0.0000  -0.0000  -0.0000  -0.0000  -0.0000  -0.0000  -0.0000
    -0.0000

          k = 0.0526 0.4558 0.0000 ( 11632 PWs)   bands (ev):

   -60.1994 -36.5238 -36.1841 -36.0400 -15.2895 -15.2895  -6.7684  -6.7663
    -6.2699  -5.3609  -4.9339  -4.8517  -4.2876  -4.2870  -4.1731  -3.8665
    -3.6922  -2.2690   0.3286   1.7509   3.1018   3.4123   3.6884   3.9798
     4.4493

     occupation numbers 
     1.0000   1.0000   1.0000   1.0000   1.0000   1.0000   1.0000   1.0000
     1.0000   1.0009   1.0231   0.9525  -0.0320  -0.0319  -0.0139  -0.0001
    -0.0000  -0.0000  -0.0000  -0.0000  -0.0000  -0.0000  -0.0000  -0.0000
    -0.0000

          k = 0.0526 0.5166 0.0000 ( 11609 PWs)   bands (ev):

   -60.1978 -36.5217 -36.2006 -36.0445 -15.1992 -15.1992  -7.0073  -7.0060
    -6.2901  -5.4246  -4.8132  -4.7649  -4.3479  -4.3478  -4.1098  -3.7263
    -3.3236  -1.9541   0.6858   0.8526   3.1178   3.2232   3.6864   3.8483
     4.5791

     occupation numbers 
     1.0000   1.0000   1.0000   1.0000   1.0000   1.0000   1.0000   1.0000
     1.0000   1.0003   0.8903   0.7843  -0.0350  -0.0350  -0.0068  -0.0000
    -0.0000  -0.0000  -0.0000  -0.0000  -0.0000  -0.0000  -0.0000  -0.0000
    -0.0000

          k = 0.0526 0.5774 0.0000 ( 11592 PWs)   bands (ev):

   -60.1972 -36.5209 -36.2063 -36.0460 -15.1671 -15.1671  -7.0897  -7.0886
    -6.3017  -5.4478  -4.7699  -4.7318  -4.3686  -4.3685  -4.0884  -3.7380
    -3.0816  -1.8043   0.4583   0.8303   3.1078   3.1282   3.6701   3.8006
     4.4806

     occupation numbers 
     1.0000   1.0000   1.0000   1.0000   1.0000   1.0000   1.0000   1.0000
     1.0000   1.0002   0.7966   0.6959  -0.0324  -0.0324  -0.0052  -0.0000
    -0.0000  -0.0000  -0.0000  -0.0000  -0.0000  -0.0000  -0.0000  -0.0000
    -0.0000

          k = 0.1053 0.1823 0.0000 ( 11745 PWs)   bands (ev):

   -60.2121 -36.5404 -36.0518 -36.0059 -15.9002 -15.9001  -7.2990  -5.6451
    -5.6333  -4.7746  -4.7342  -4.7004  -4.5943  -4.3933  -3.8000  -3.7876
    -3.7853  -3.4273  -1.6220   1.9714   2.4684   2.8561   3.0281   3.1665
     3.5840

     occupation numbers 
     1.0000   1.0000   1.0000   1.0000   1.0000   1.0000   1.0000   1.0000
     1.0000   0.8080   0.7028   0.6038   0.2831  -0.0256  -0.0000  -0.0000
    -0.0000  -0.0000  -0.0000  -0.0000  -0.0000  -0.0000  -0.0000  -0.0000
    -0.0000

          k = 0.1053 0.2431 0.0000 ( 11726 PWs)   bands (ev):

   -60.2092 -36.5365 -36.0812 -36.0158 -15.7705 -15.7705  -6.9126  -5.5120
    -5.4831  -5.1847  -5.1832  -4.9235  -4.6308  -4.5287  -3.9693  -3.9692
    -3.5152  -3.4707  -1.1840   2.2505   2.7829   3.0809   3.3184   3.5003
     3.8720

     occupation numbers 
     1.0000   1.0000   1.0000   1.0000   1.0000   1.0000   1.0000   1.0001
     1.0001   1.0108   1.0110   1.0182   0.3893   0.1258  -0.0009  -0.0009
    -0.0000  -0.0000  -0.0000  -0.0000  -0.0000  -0.0000  -0.0000  -0.0000
    -0.0000

          k = 0.1053 0.3039 0.0000 ( 11724 PWs)   bands (ev):

   -60.2059 -36.5323 -36.1130 -36.0266 -15.6214 -15.6214  -6.5017  -5.6957
    -5.6916  -5.3570  -5.3107  -4.9864  -4.8238  -4.4159  -4.1577  -4.1571
    -3.6114  -3.0764  -0.7134   2.5686   3.1409   3.2881   3.7238   3.9206
     4.2415

     occupation numbers 
     1.0000   1.0000   1.0000   1.0000   1.0000   1.0000   1.0000   1.0000
     1.0000   1.0010   1.0021   1.0350   0.9095  -0.0151  -0.0119  -0.0118
    -0.0000  -0.0000  -0.0000  -0.0000  -0.0000  -0.0000  -0.0000  -0.0000
    -0.0000

          k = 0.1053 0.3646 0.0000 ( 11684 PWs)   bands (ev):

   -60.2028 -36.5282 -36.1437 -36.0371 -15.4670 -15.4670  -6.2254  -6.1621
    -6.1340  -5.2660  -5.1626  -4.9228  -4.8170  -4.3361  -4.3303  -4.2936
    -3.7046  -2.6376  -0.2252   2.8685   3.3359   3.4682   3.7170   4.2371
     4.3954

     occupation numbers 
     1.0000   1.0000   1.0000   1.0000   1.0000   1.0000   1.0000   1.0000
     1.0000   1.0039   1.0136   1.0178   0.8973  -0.0354  -0.0354  -0.0328
    -0.0000  -0.0000  -0.0000  -0.0000  -0.0000  -0.0000  -0.0000  -0.0000
    -0.0000

          k = 0.1053 0.4254 0.0000 ( 11626 PWs)   bands (ev):

   -60.2000 -36.5246 -36.1700 -36.0462 -15.3251 -15.3251  -6.5611  -6.5584
    -6.1033  -5.2908  -4.9880  -4.8743  -4.4735  -4.4715  -4.4019  -4.1956
    -3.7847  -2.1814   0.2582   2.2797   3.1367   3.5834   3.7748   4.3470
     4.7286

     occupation numbers 
     1.0000   1.0000   1.0000   1.0000   1.0000   1.0000   1.0000   1.0000
     1.0000   1.0028   1.0351   0.9798   0.0366   0.0341  -0.0222  -0.0172
    -0.0000  -0.0000  -0.0000  -0.0000  -0.0000  -0.0000  -0.0000  -0.0000
    -0.0000

          k = 0.1053 0.4862 0.0000 ( 11607 PWs)   bands (ev):

   -60.1980 -36.5220 -36.1893 -36.0529 -15.2152 -15.2152  -6.8478  -6.8465
    -6.1208  -5.3528  -4.8401  -4.7793  -4.5713  -4.5707  -4.1208  -3.8953
    -3.8431  -1.7368   0.6898   1.2539   3.2046   3.4433   3.9552   4.2064
     4.7167

     occupation numbers 
     1.0000   1.0000   1.0000   1.0000   1.0000   1.0000   1.0000   1.0000
     1.0000   1.0011   0.9359   0.8189   0.2225   0.2208  -0.0078  -0.0002
    -0.0001  -0.0000  -0.0000  -0.0000  -0.0000  -0.0000  -0.0000  -0.0000
    -0.0000

          k = 0.1053 0.5470 0.0000 ( 11603 PWs)   bands (ev):

   -60.1970 -36.5206 -36.1995 -36.0564 -15.1548 -15.1548  -6.9994  -6.9984
    -6.1460  -5.3905  -4.7587  -4.7190  -4.6220  -4.6217  -4.0803  -3.8738
    -3.5365  -1.3728   0.5251   0.9713   3.2057   3.2760   4.0116   4.1082
     4.6698

     occupation numbers 
     1.0000   1.0000   1.0000   1.0000   1.0000   1.0000   1.0000   1.0000
     1.0000   1.0006   0.7687   0.6592   0.3629   0.3620  -0.0047  -0.0001
    -0.0000  -0.0000  -0.0000  -0.0000  -0.0000  -0.0000  -0.0000  -0.0000
    -0.0000

          k = 0.1579 0.2735 0.0000 ( 11731 PWs)   bands (ev):

   -60.2062 -36.5327 -36.1075 -36.0281 -15.6363 -15.6363  -6.5004  -5.6032
    -5.5974  -5.3657  -5.3119  -5.0759  -4.7923  -4.4295  -4.2136  -4.2130
    -3.6341  -3.0787  -0.7453   2.5454   3.1133   3.2771   3.6788   3.8769
     4.2084

     occupation numbers 
     1.0000   1.0000   1.0000   1.0000   1.0000   1.0000   1.0000   1.0000
     1.0000   1.0008   1.0020   1.0275   0.8480  -0.0062  -0.0201  -0.0200
    -0.0000  -0.0000  -0.0000  -0.0000  -0.0000  -0.0000  -0.0000  -0.0000
    -0.0000

          k = 0.1579 0.3343 0.0000 ( 11700 PWs)   bands (ev):

   -60.2032 -36.5288 -36.1336 -36.0414 -15.4905 -15.4904  -6.1019  -5.9971
    -5.9730  -5.2590  -5.1925  -5.0949  -4.8910  -4.4655  -4.4635  -4.3177
    -3.7636  -2.6175  -0.2672   2.8563   3.4561   3.4649   4.0671   4.1496
     4.3315

     occupation numbers 
     1.0000   1.0000   1.0000   1.0000   1.0000   1.0000   1.0000   1.0000
     1.0000   1.0043   1.0099   1.0243   0.9959   0.0270   0.0247  -0.0350
    -0.0000  -0.0000  -0.0000  -0.0000  -0.0000  -0.0000  -0.0000  -0.0000
    -0.0000

          k = 0.1579 0.3950 0.0000 ( 11648 PWs)   bands (ev):

   -60.2004 -36.5251 -36.1571 -36.0541 -15.3484 -15.3483  -6.3605  -6.3573
    -5.8467  -5.2319  -5.0644  -4.8751  -4.8590  -4.6844  -4.6834  -4.2142
    -3.8866  -2.1123   0.2299   2.7965   3.1670   3.6943   3.7767   4.6489
     4.7007

     occupation numbers 
     1.0000   1.0000   1.0000   1.0000   1.0000   1.0000   1.0000   1.0000
     1.0000   1.0062   1.0293   0.9807   0.9621   0.5546   0.5517  -0.0202
    -0.0002  -0.0000  -0.0000  -0.0000  -0.0000  -0.0000  -0.0000  -0.0000
    -0.0000

          k = 0.1579 0.4558 0.0000 ( 11629 PWs)   bands (ev):

   -60.1982 -36.5222 -36.1757 -36.0645 -15.2278 -15.2278  -6.6484  -6.6470
    -5.8479  -5.2662  -4.8771  -4.8520  -4.8477  -4.7857  -4.4559  -4.1282
    -3.9875  -1.5884   0.7130   1.7343   3.2842   3.6931   4.0759   4.4267
     4.6148

     occupation numbers 
     1.0000   1.0000   1.0000   1.0000   1.0000   1.0000   1.0000   1.0000
     1.0000   1.0039   0.9828   0.9530   0.9470   0.8336   0.0166  -0.0085
    -0.0012  -0.0000  -0.0000  -0.0000  -0.0000  -0.0000  -0.0000  -0.0000
    -0.0000

          k = 0.1579 0.5166 0.0000 ( 11620 PWs)   bands (ev):

   -60.1968 -36.5203 -36.1877 -36.0713 -15.1463 -15.1463  -6.8364  -6.8354
    -5.8916  -5.2987  -4.9585  -4.9560  -4.7542  -4.7094  -4.0861  -4.0535
    -4.0388  -1.0728   0.8093   1.1106   3.3303   3.5209   4.0803   4.3864
     4.4661

     occupation numbers 
     1.0000   1.0000   1.0000   1.0000   1.0000   1.0000   1.0000   1.0000
     1.0000   1.0025   1.0311   1.0305   0.7570   0.6306  -0.0051  -0.0032
    -0.0026  -0.0000  -0.0000  -0.0000  -0.0000  -0.0000  -0.0000  -0.0000
    -0.0000

          k = 0.1579 0.5774 0.0000 ( 11612 PWs)   bands (ev):

   -60.1963 -36.5197 -36.1918 -36.0736 -15.1175 -15.1174  -6.9018  -6.9009
    -5.9104  -5.3105  -4.9936  -4.9912  -4.7146  -4.6807  -4.0764  -4.0569
    -3.8804  -0.7521   0.3327   1.2792   3.3379   3.4109   3.9819   4.4061
     4.4566

     occupation numbers 
     1.0000   1.0000   1.0000   1.0000   1.0000   1.0000   1.0000   1.0000
     1.0000   1.0021   1.0354   1.0353   0.6463   0.5433  -0.0044  -0.0034
    -0.0002  -0.0000  -0.0000  -0.0000  -0.0000  -0.0000  -0.0000  -0.0000
    -0.0000

          k = 0.2105 0.3646 0.0000 ( 11641 PWs)   bands (ev):

   -60.2006 -36.5253 -36.1515 -36.0580 -15.3564 -15.3564  -6.2692  -6.2658
    -5.6234  -5.2681  -5.2099  -4.9735  -4.8702  -4.7844  -4.7824  -4.2205
    -3.9320  -2.0875   0.2230   3.0478   3.2174   3.7278   3.7396   4.5517
     4.6701

     occupation numbers 
     1.0000   1.0000   1.0000   1.0000   1.0000   1.0000   1.0000   1.0000
     1.0000   1.0038   1.0081   1.0338   0.9754   0.8307   0.8261  -0.0212
    -0.0005  -0.0000  -0.0000  -0.0000  -0.0000  -0.0000  -0.0000  -0.0000
    -0.0000

          k = 0.2105 0.4254 0.0000 ( 11604 PWs)   bands (ev):

   -60.1983 -36.5223 -36.1654 -36.0737 -15.2347 -15.2347  -6.4880  -6.4865
    -5.4825  -5.2042  -5.0732  -5.0647  -5.0485  -4.8042  -4.7844  -4.1332
    -4.0925  -1.5169   0.7307   2.1598   3.2933   3.8407   3.8724   4.2539
     4.8681

     occupation numbers 
     1.0000   1.0000   1.0000   1.0000   1.0000   1.0000   1.0000   1.0000
     1.0001   1.0087   1.0279   1.0293   1.0317   0.8728   0.8306  -0.0091
    -0.0055  -0.0000  -0.0000  -0.0000  -0.0000  -0.0000  -0.0000  -0.0000
    -0.0000

          k = 0.2105 0.4862 0.0000 ( 11604 PWs)   bands (ev):

   -60.1966 -36.5202 -36.1747 -36.0863 -15.1414 -15.1414  -6.6464  -6.6455
    -5.5559  -5.2789  -5.2743  -5.1936  -4.7758  -4.7017  -4.5352  -4.2198
    -4.0694  -0.9310   1.2088   1.2322   3.2421   3.6485   3.8265   4.5871
     4.6811

     occupation numbers 
     1.0000   1.0000   1.0000   1.0000   1.0000   1.0000   1.0000   1.0000
     1.0000   1.0033   1.0035   1.0098   0.8107   0.6077   0.1391  -0.0211
    -0.0040  -0.0000  -0.0000  -0.0000  -0.0000  -0.0000  -0.0000  -0.0000
    -0.0000

          k = 0.2105 0.5470 0.0000 ( 11658 PWs)   bands (ev):

   -60.1958 -36.5190 -36.1793 -36.0932 -15.0906 -15.0906  -6.7301  -6.7293
    -5.6013  -5.3845  -5.3825  -5.1913  -4.6902  -4.6553  -4.2901  -4.2760
    -4.0391  -0.3505   0.4540   1.5440   3.0633   3.6328   3.6634   4.6440
     4.8135

     occupation numbers 
     1.0000   1.0000   1.0000   1.0000   1.0000   1.0000   1.0000   1.0000
     1.0000   1.0006   1.0006   1.0100   0.5726   0.4643  -0.0323  -0.0304
    -0.0026  -0.0000  -0.0000  -0.0000  -0.0000  -0.0000  -0.0000  -0.0000
    -0.0000

          k = 0.2632 0.4558 0.0000 ( 11608 PWs)   bands (ev):

   -60.1966 -36.5201 -36.1682 -36.0934 -15.1398 -15.1398  -6.5469  -6.5460
    -5.4204  -5.4204  -5.2653  -5.1508  -4.9604  -4.6987  -4.6977  -4.2930
    -4.0687  -0.8928   1.2436   1.4881   2.9774   3.6422   4.0195   4.6520
     4.6656

     occupation numbers 
     1.0000   1.0000   1.0000   1.0000   1.0000   1.0000   1.0000   1.0000
     1.0003   1.0003   1.0040   1.0153   1.0315   0.5984   0.5954  -0.0327
    -0.0040  -0.0000  -0.0000  -0.0000  -0.0000  -0.0000  -0.0000  -0.0000
    -0.0000

          k = 0.2632 0.5166 0.0000 ( 11643 PWs)   bands (ev):

   -60.1955 -36.5186 -36.1669 -36.1094 -15.0767 -15.0767  -6.5496  -6.5490
    -5.6826  -5.6824  -5.2672  -5.0866  -4.7425  -4.6474  -4.5918  -4.4465
    -4.0310  -0.2841   0.8778   1.6974   2.4584   3.8140   3.9247   4.5528
     5.0006

     occupation numbers 
     1.0000   1.0000   1.0000   1.0000   1.0000   1.0000   1.0000   1.0000
     1.0000   1.0000   1.0039   1.0257   0.7257   0.4398   0.2764   0.0076
    -0.0023  -0.0000  -0.0000  -0.0000  -0.0000  -0.0000  -0.0000  -0.0000
    -0.0000

          k = 0.2632 0.5774 0.0000 ( 11634 PWs)   bands (ev):

   -60.1951 -36.5181 -36.1652 -36.1160 -15.0545 -15.0545  -6.5387  -6.5381
    -5.7850  -5.7849  -5.2790  -5.0504  -4.6738  -4.6444  -4.5219  -4.4984
    -4.0205   0.1737   0.4358   1.9079   2.2456   3.7460   3.9266   4.7640
     4.8917

     occupation numbers 
     1.0000   1.0000   1.0000   1.0000   1.0000   1.0000   1.0000   1.0000
     1.0000   1.0000   1.0033   1.0314   0.5218   0.4307   0.1126   0.0717
    -0.0020  -0.0000  -0.0000  -0.0000  -0.0000  -0.0000  -0.0000  -0.0000
    -0.0000

          k = 0.3158 0.5470 0.0000 ( 11638 PWs)   bands (ev):

   -60.1949 -36.5178 -36.1536 -36.1308 -15.0419 -15.0419  -6.3686  -6.3681
    -6.0286  -6.0283  -5.0377  -4.9407  -4.8113  -4.7186  -4.5924  -4.5535
    -4.0142   0.1136   0.9297   1.6963   2.0615   3.8095   4.1466   4.5434
     4.6792

     occupation numbers 
     1.0000   1.0000   1.0000   1.0000   1.0000   1.0000   1.0000   1.0000
     1.0000   1.0000   1.0330   1.0258   0.8867   0.6579   0.2781   0.1793
    -0.0018  -0.0000  -0.0000  -0.0000  -0.0000  -0.0000  -0.0000  -0.0000
    -0.0000

     the Fermi energy is    -4.6668 ev

!    total energy              =    -452.97204609 Ry

     total all-electron energy =     -9223.176557 Ry
     estimated scf accuracy    <          3.6E-09 Ry
     smearing contrib. (-TS)   =      -0.00199340 Ry
     internal energy E=F+TS    =    -452.97005269 Ry

     The total energy is F=E-TS. E is the sum of the following terms:
     one-electron contribution =   -1481.46328667 Ry
     hartree contribution      =     740.16068285 Ry
     xc contribution           =     -31.35831829 Ry
     ewald contribution        =     613.75036080 Ry
     one-center paw contrib.   =    -294.05949138 Ry
      -> PAW hartree energy AE =      81.91390187 Ry
      -> PAW hartree energy PS =     -81.42853766 Ry
      -> PAW xc energy AE      =    -275.72508618 Ry
      -> PAW xc energy PS      =      22.85181876 Ry
      -> total E_H with PAW    =     740.64604706 Ry
      -> total E_XC with PAW   =    -284.23158571 Ry

     convergence has been achieved in  26 iterations

     Writing output data file ./tmp/NbS2.save/

     init_run     :     11.57s CPU     12.04s WALL (       1 calls)
     electrons    :    782.55s CPU    803.64s WALL (       1 calls)

     Called by init_run:
     wfcinit      :      8.97s CPU      9.07s WALL (       1 calls)
     wfcinit:atom :      0.09s CPU      0.09s WALL (      40 calls)
     wfcinit:wfcr :      8.68s CPU      8.79s WALL (      40 calls)
     potinit      :      0.65s CPU      0.68s WALL (       1 calls)
     hinit0       :      0.98s CPU      1.00s WALL (       1 calls)

     Called by electrons:
     c_bands      :    599.24s CPU    605.30s WALL (      26 calls)
     sum_band     :    151.72s CPU    160.56s WALL (      26 calls)
     v_of_rho     :      2.22s CPU      2.29s WALL (      27 calls)
     v_h          :      1.24s CPU      1.29s WALL (      27 calls)
     v_xc         :      0.99s CPU      1.01s WALL (      27 calls)
     newd         :     24.56s CPU     30.81s WALL (      27 calls)
     PAW_pot      :      1.43s CPU      1.43s WALL (      27 calls)
     mix_rho      :      2.78s CPU      2.85s WALL (      26 calls)

     Called by c_bands:
     init_us_2    :      5.08s CPU      5.19s WALL (    2120 calls)
     cegterg      :    589.29s CPU    595.07s WALL (    1040 calls)

     Called by sum_band:
     sum_band:wei :      0.04s CPU      0.04s WALL (      26 calls)
     sum_band:loo :    112.05s CPU    113.32s WALL (      26 calls)
     sum_band:buf :      1.19s CPU      1.20s WALL (    1040 calls)
     sum_band:ini :      2.49s CPU      2.49s WALL (    1040 calls)
     sum_band:cal :     12.06s CPU     12.10s WALL (    1040 calls)
     sum_band:bec :      0.03s CPU      0.03s WALL (    1040 calls)
     addusdens    :     37.49s CPU     44.96s WALL (      26 calls)
     addusd:skk   :      0.07s CPU      0.08s WALL (      52 calls)
     addusd:dgemm :      9.92s CPU     15.92s WALL (      52 calls)
     addusd:qvan2 :     25.67s CPU     25.69s WALL (      52 calls)

     Called by *egterg:
     cdiaghg      :      2.91s CPU      2.92s WALL (    3764 calls)
     cegterg:over :     37.22s CPU     37.29s WALL (    2724 calls)
     cegterg:upda :     21.12s CPU     21.19s WALL (    2724 calls)
     cegterg:last :     52.49s CPU     52.54s WALL (    1719 calls)
     h_psi        :    435.67s CPU    441.14s WALL (    3804 calls)
     s_psi        :     27.02s CPU     27.11s WALL (    3804 calls)
     g_psi        :      0.98s CPU      0.98s WALL (    2724 calls)

     Called by h_psi:
     h_psi:calbec :     28.62s CPU     28.82s WALL (    3804 calls)
     vloc_psi     :    379.45s CPU    384.62s WALL (    3804 calls)
     add_vuspsi   :     25.01s CPU     25.07s WALL (    3804 calls)

     General routines
     calbec       :     40.65s CPU     40.90s WALL (    4844 calls)
     fft          :      5.75s CPU      5.94s WALL (     160 calls)
     ffts         :      0.31s CPU      0.32s WALL (      53 calls)
     fftw         :    393.53s CPU    398.75s WALL (  147128 calls)
     interpolate  :      1.22s CPU      1.25s WALL (      27 calls)

     Parallel routines
     fft_scatt_xy :     62.51s CPU     63.30s WALL (  147341 calls)
     fft_scatt_yz :     28.01s CPU     28.57s WALL (  147341 calls)

     PAW routines
     PAW_pot      :      1.43s CPU      1.43s WALL (      27 calls)
     PAW_symme    :      0.01s CPU      0.01s WALL (      53 calls)

     PWSCF        :  13m15.44s CPU  13m38.22s WALL


   This run was terminated on:  17:44: 9  10Jun2021            

=------------------------------------------------------------------------------=
   JOB DONE.
=------------------------------------------------------------------------------=
