
     Program PWSCF v.6.6 starts on 10Jun2021 at 17: 9:39 

     This program is part of the open-source Quantum ESPRESSO suite
     for quantum simulation of materials; please cite
         "P. Giannozzi et al., J. Phys.:Condens. Matter 21 395502 (2009);
         "P. Giannozzi et al., J. Phys.:Condens. Matter 29 465901 (2017);
          URL http://www.quantum-espresso.org", 
     in publications or presentations arising from this work. More details at
     http://www.quantum-espresso.org/quote

     Parallel version (MPI), running on     2 processors

     MPI processes distributed on     1 nodes
     R & G space division:  proc/nbgrp/npool/nimage =       2
     Fft bands division:     nmany     =       1
     Waiting for input...
     Reading input from standard input

     Current dimensions of program PWSCF are:
     Max number of different atomic species (ntypx) = 10
     Max number of k-points (npk) =  40000
     Max angular momentum in pseudopotentials (lmaxx) =  3
     file Nb.pz-spn-kjpaw_psl.1.0.0.UPF: wavefunction(s)  4S 4P 4D renormalized
     file S.pz-n-kjpaw_psl.0.1.UPF: wavefunction(s)  3P renormalized

     Subspace diagonalization in iterative solution of the eigenvalue problem:
     a serial algorithm will be used


     Parallelization info
     --------------------
     sticks:   dense  smooth     PW     G-vecs:    dense   smooth      PW
     Min         579     225     69               184729    46499    7727
     Max         580     226     70               184746    46524    7746
     Sum        1159     451    139               369475    93023   15473



     bravais-lattice index     =            4
     lattice parameter (alat)  =       6.4591  a.u.
     unit-cell volume          =    2731.0606 (a.u.)^3
     number of atoms/cell      =            3
     number of atomic types    =            2
     number of electrons       =        25.00
     number of Kohn-Sham states=           25
     kinetic-energy cutoff     =      40.0000  Ry
     charge density cutoff     =     400.0000  Ry
     convergence threshold     =      1.0E-08
     mixing beta               =       0.7000
     number of iterations used =            8  plain     mixing
     Exchange-correlation= SLA PZ NOGX NOGC
                           (   1   1   0   0   0   0   0)

     celldm(1)=   6.459084  celldm(2)=   0.000000  celldm(3)=  11.702750
     celldm(4)=   0.000000  celldm(5)=   0.000000  celldm(6)=   0.000000

     crystal axes: (cart. coord. in units of alat)
               a(1) = (   1.000000   0.000000   0.000000 )  
               a(2) = (  -0.500000   0.866025   0.000000 )  
               a(3) = (   0.000000   0.000000  11.702750 )  

     reciprocal axes: (cart. coord. in units 2 pi/alat)
               b(1) = (  1.000000  0.577350 -0.000000 )  
               b(2) = (  0.000000  1.154701  0.000000 )  
               b(3) = (  0.000000 -0.000000  0.085450 )  


     PseudoPot. # 1 for Nb read from file:
     ../Nb.pz-spn-kjpaw_psl.1.0.0.UPF
     MD5 check sum: 38c2e04b3cc915696ca8dc9f46a23270
     Pseudo is Projector augmented-wave + core cor, Zval = 13.0
     Generated using "atomic" code by A. Dal Corso v.6.2.2
     Shape of augmentation charge: PSQ
     Using radial grid of 1227 points,  6 beta functions with: 
                l(1) =   0
                l(2) =   0
                l(3) =   1
                l(4) =   1
                l(5) =   2
                l(6) =   2
     Q(r) pseudized with 0 coefficients 


     PseudoPot. # 2 for S  read from file:
     ../S.pz-n-kjpaw_psl.0.1.UPF
     MD5 check sum: c0b1682311cf098e03f7841691d9a679
     Pseudo is Projector augmented-wave + core cor, Zval =  6.0
     Generated using "atomic" code by A. Dal Corso v.5.0.2 svn rev. 9415
     Shape of augmentation charge: PSQ
     Using radial grid of 1151 points,  4 beta functions with: 
                l(1) =   0
                l(2) =   0
                l(3) =   1
                l(4) =   1
     Q(r) pseudized with 0 coefficients 


     atomic species   valence    mass     pseudopotential
        Nb            13.00    92.90600     Nb( 1.00)
        S              6.00    32.06500     S ( 1.00)

     12 Sym. Ops. (no inversion) found ( 6 have fractional translation)


                                    s                        frac. trans.

      isym =  1     identity                                     

 cryst.   s( 1) = (     1          0          0      )
                  (     0          1          0      )
                  (     0          0          1      )

 cart.    s( 1) = (  1.0000000  0.0000000  0.0000000 )
                  (  0.0000000  1.0000000  0.0000000 )
                  (  0.0000000  0.0000000  1.0000000 )


      isym =  2     180 deg rotation - cart. axis [0,1,0]        

 cryst.   s( 2) = (    -1          0          0      )    f =(  0.0000000 )
                  (     1          1          0      )       (  0.0000000 )
                  (     0          0         -1      )       (  0.5000000 )

 cart.    s( 2) = ( -1.0000000  0.0000000  0.0000000 )    f =(  0.0000000 )
                  (  0.0000000  1.0000000  0.0000000 )       (  0.0000000 )
                  (  0.0000000  0.0000000 -1.0000000 )       (  5.8513751 )


      isym =  3     120 deg rotation - cryst. axis [0,0,1]       

 cryst.   s( 3) = (     0          1          0      )
                  (    -1         -1          0      )
                  (     0          0          1      )

 cart.    s( 3) = ( -0.5000000 -0.8660254  0.0000000 )
                  (  0.8660254 -0.5000000  0.0000000 )
                  (  0.0000000  0.0000000  1.0000000 )


      isym =  4     120 deg rotation - cryst. axis [0,0,-1]      

 cryst.   s( 4) = (    -1         -1          0      )
                  (     1          0          0      )
                  (     0          0          1      )

 cart.    s( 4) = ( -0.5000000  0.8660254  0.0000000 )
                  ( -0.8660254 -0.5000000  0.0000000 )
                  (  0.0000000  0.0000000  1.0000000 )


      isym =  5     180 deg rotation - cryst. axis [1,-1,0]      

 cryst.   s( 5) = (     0         -1          0      )    f =(  0.0000000 )
                  (    -1          0          0      )       (  0.0000000 )
                  (     0          0         -1      )       (  0.5000000 )

 cart.    s( 5) = (  0.5000000 -0.8660254  0.0000000 )    f =(  0.0000000 )
                  ( -0.8660254 -0.5000000  0.0000000 )       (  0.0000000 )
                  (  0.0000000  0.0000000 -1.0000000 )       (  5.8513751 )


      isym =  6     180 deg rotation - cryst. axis [2,1,0]       

 cryst.   s( 6) = (     1          1          0      )    f =(  0.0000000 )
                  (     0         -1          0      )       (  0.0000000 )
                  (     0          0         -1      )       (  0.5000000 )

 cart.    s( 6) = (  0.5000000  0.8660254  0.0000000 )    f =( -0.0000000 )
                  (  0.8660254 -0.5000000  0.0000000 )       (  0.0000000 )
                  (  0.0000000  0.0000000 -1.0000000 )       (  5.8513751 )


      isym =  7     inv. 180 deg rotation - cart. axis [0,0,1]   

 cryst.   s( 7) = (     1          0          0      )    f =(  0.0000000 )
                  (     0          1          0      )       (  0.0000000 )
                  (     0          0         -1      )       (  0.5000000 )

 cart.    s( 7) = (  1.0000000  0.0000000  0.0000000 )    f =(  0.0000000 )
                  (  0.0000000  1.0000000  0.0000000 )       (  0.0000000 )
                  (  0.0000000  0.0000000 -1.0000000 )       (  5.8513751 )


      isym =  8     inv. 180 deg rotation - cart. axis [1,0,0]   

 cryst.   s( 8) = (    -1          0          0      )
                  (     1          1          0      )
                  (     0          0          1      )

 cart.    s( 8) = ( -1.0000000  0.0000000  0.0000000 )
                  (  0.0000000  1.0000000  0.0000000 )
                  (  0.0000000  0.0000000  1.0000000 )


      isym =  9     inv.  60 deg rotation - cryst. axis [0,0,1]  

 cryst.   s( 9) = (    -1         -1          0      )    f =(  0.0000000 )
                  (     1          0          0      )       (  0.0000000 )
                  (     0          0         -1      )       (  0.5000000 )

 cart.    s( 9) = ( -0.5000000  0.8660254  0.0000000 )    f =( -0.0000000 )
                  ( -0.8660254 -0.5000000  0.0000000 )       (  0.0000000 )
                  (  0.0000000  0.0000000 -1.0000000 )       (  5.8513751 )


      isym = 10     inv.  60 deg rotation - cryst. axis [0,0,-1] 

 cryst.   s(10) = (     0          1          0      )    f =(  0.0000000 )
                  (    -1         -1          0      )       (  0.0000000 )
                  (     0          0         -1      )       (  0.5000000 )

 cart.    s(10) = ( -0.5000000 -0.8660254  0.0000000 )    f =(  0.0000000 )
                  (  0.8660254 -0.5000000  0.0000000 )       (  0.0000000 )
                  (  0.0000000  0.0000000 -1.0000000 )       (  5.8513751 )


      isym = 11     inv. 180 deg rotation - cryst. axis [0,1,0]  

 cryst.   s(11) = (     1          1          0      )
                  (     0         -1          0      )
                  (     0          0          1      )

 cart.    s(11) = (  0.5000000  0.8660254  0.0000000 )
                  (  0.8660254 -0.5000000  0.0000000 )
                  (  0.0000000  0.0000000  1.0000000 )


      isym = 12     inv. 180 deg rotation - cryst. axis [1,1,0]  

 cryst.   s(12) = (     0         -1          0      )
                  (    -1          0          0      )
                  (     0          0          1      )

 cart.    s(12) = (  0.5000000 -0.8660254  0.0000000 )
                  ( -0.8660254 -0.5000000  0.0000000 )
                  (  0.0000000  0.0000000  1.0000000 )


     point group D_3h (-62m)
     there are  6 classes
     the character table:

       E     2C3   3C2   s_h   2S3   3s_v 
A'_1   1.00  1.00  1.00  1.00  1.00  1.00
A'_2   1.00  1.00 -1.00  1.00  1.00 -1.00
E'     2.00 -1.00  0.00  2.00 -1.00  0.00
A''1   1.00  1.00  1.00 -1.00 -1.00 -1.00
A''2   1.00  1.00 -1.00 -1.00 -1.00  1.00
E''    2.00 -1.00  0.00 -2.00  1.00  0.00

     the symmetry operations in each class and the name of the first element:

     E        1
          identity                                               
     2C3      3    4
          120 deg rotation - cryst. axis [0,0,1]                 
     3C2      2    6    5
          180 deg rotation - cart. axis [0,1,0]                  
     s_h      7
          inv. 180 deg rotation - cart. axis [0,0,1]             
     2S3      9   10
          inv.  60 deg rotation - cryst. axis [0,0,1]            
     3s_v     8   11   12
          inv. 180 deg rotation - cart. axis [1,0,0]             

   Cartesian axes

     site n.     atom                  positions (alat units)
         1           S   tau(   1) = (   0.0000000   0.5773503   4.3089526  )
         2           Nb  tau(   2) = (   0.0000000   0.0000000   2.9256875  )
         3           S   tau(   3) = (   0.0000000   0.5773503   1.5424225  )

   Crystallographic axes

     site n.     atom                  positions (cryst. coord.)
         1           S   tau(   1) = (  0.3333333  0.6666667  0.3682000  )
         2           Nb  tau(   2) = (  0.0000000  0.0000000  0.2500000  )
         3           S   tau(   3) = (  0.3333333  0.6666667  0.1318000  )

     number of k points=    33  Methfessel-Paxton smearing, width (Ry)=  0.0200
                       cart. coord. in units 2pi/alat
        k(    1) = (   0.0000000   0.0000000   0.0000000), wk =   0.0069204
        k(    2) = (   0.0000000   0.0679236   0.0000000), wk =   0.0415225
        k(    3) = (   0.0000000   0.1358471   0.0000000), wk =   0.0415225
        k(    4) = (   0.0000000   0.2037707   0.0000000), wk =   0.0415225
        k(    5) = (   0.0000000   0.2716942   0.0000000), wk =   0.0415225
        k(    6) = (   0.0000000   0.3396178   0.0000000), wk =   0.0415225
        k(    7) = (   0.0000000   0.4075414   0.0000000), wk =   0.0415225
        k(    8) = (   0.0000000   0.4754649   0.0000000), wk =   0.0415225
        k(    9) = (   0.0000000   0.5433885   0.0000000), wk =   0.0415225
        k(   10) = (   0.0588235   0.1018853   0.0000000), wk =   0.0415225
        k(   11) = (   0.0588235   0.1698089   0.0000000), wk =   0.0830450
        k(   12) = (   0.0588235   0.2377325   0.0000000), wk =   0.0830450
        k(   13) = (   0.0588235   0.3056560   0.0000000), wk =   0.0830450
        k(   14) = (   0.0588235   0.3735796   0.0000000), wk =   0.0830450
        k(   15) = (   0.0588235   0.4415031   0.0000000), wk =   0.0830450
        k(   16) = (   0.0588235   0.5094267   0.0000000), wk =   0.0830450
        k(   17) = (   0.0588235   0.5773503   0.0000000), wk =   0.0415225
        k(   18) = (   0.1176471   0.2037707   0.0000000), wk =   0.0415225
        k(   19) = (   0.1176471   0.2716942   0.0000000), wk =   0.0830450
        k(   20) = (   0.1176471   0.3396178   0.0000000), wk =   0.0830450
        k(   21) = (   0.1176471   0.4075414   0.0000000), wk =   0.0830450
        k(   22) = (   0.1176471   0.4754649   0.0000000), wk =   0.0830450
        k(   23) = (   0.1176471   0.5433885   0.0000000), wk =   0.0830450
        k(   24) = (   0.1764706   0.3056560   0.0000000), wk =   0.0415225
        k(   25) = (   0.1764706   0.3735796   0.0000000), wk =   0.0830450
        k(   26) = (   0.1764706   0.4415031   0.0000000), wk =   0.0830450
        k(   27) = (   0.1764706   0.5094267   0.0000000), wk =   0.0830450
        k(   28) = (   0.1764706   0.5773503   0.0000000), wk =   0.0415225
        k(   29) = (   0.2352941   0.4075414   0.0000000), wk =   0.0415225
        k(   30) = (   0.2352941   0.4754649   0.0000000), wk =   0.0830450
        k(   31) = (   0.2352941   0.5433885   0.0000000), wk =   0.0830450
        k(   32) = (   0.2941176   0.5094267   0.0000000), wk =   0.0415225
        k(   33) = (   0.2941176   0.5773503   0.0000000), wk =   0.0415225

                       cryst. coord.
        k(    1) = (   0.0000000   0.0000000   0.0000000), wk =   0.0069204
        k(    2) = (   0.0000000   0.0588235   0.0000000), wk =   0.0415225
        k(    3) = (   0.0000000   0.1176471   0.0000000), wk =   0.0415225
        k(    4) = (   0.0000000   0.1764706   0.0000000), wk =   0.0415225
        k(    5) = (   0.0000000   0.2352941   0.0000000), wk =   0.0415225
        k(    6) = (   0.0000000   0.2941176   0.0000000), wk =   0.0415225
        k(    7) = (   0.0000000   0.3529412   0.0000000), wk =   0.0415225
        k(    8) = (   0.0000000   0.4117647   0.0000000), wk =   0.0415225
        k(    9) = (   0.0000000   0.4705882   0.0000000), wk =   0.0415225
        k(   10) = (   0.0588235   0.0588235   0.0000000), wk =   0.0415225
        k(   11) = (   0.0588235   0.1176471   0.0000000), wk =   0.0830450
        k(   12) = (   0.0588235   0.1764706   0.0000000), wk =   0.0830450
        k(   13) = (   0.0588235   0.2352941   0.0000000), wk =   0.0830450
        k(   14) = (   0.0588235   0.2941176   0.0000000), wk =   0.0830450
        k(   15) = (   0.0588235   0.3529412   0.0000000), wk =   0.0830450
        k(   16) = (   0.0588235   0.4117647   0.0000000), wk =   0.0830450
        k(   17) = (   0.0588235   0.4705882   0.0000000), wk =   0.0415225
        k(   18) = (   0.1176471   0.1176471   0.0000000), wk =   0.0415225
        k(   19) = (   0.1176471   0.1764706   0.0000000), wk =   0.0830450
        k(   20) = (   0.1176471   0.2352941   0.0000000), wk =   0.0830450
        k(   21) = (   0.1176471   0.2941176   0.0000000), wk =   0.0830450
        k(   22) = (   0.1176471   0.3529412   0.0000000), wk =   0.0830450
        k(   23) = (   0.1176471   0.4117647   0.0000000), wk =   0.0830450
        k(   24) = (   0.1764706   0.1764706   0.0000000), wk =   0.0415225
        k(   25) = (   0.1764706   0.2352941   0.0000000), wk =   0.0830450
        k(   26) = (   0.1764706   0.2941176   0.0000000), wk =   0.0830450
        k(   27) = (   0.1764706   0.3529412   0.0000000), wk =   0.0830450
        k(   28) = (   0.1764706   0.4117647   0.0000000), wk =   0.0415225
        k(   29) = (   0.2352941   0.2352941   0.0000000), wk =   0.0415225
        k(   30) = (   0.2352941   0.2941176   0.0000000), wk =   0.0830450
        k(   31) = (   0.2352941   0.3529412   0.0000000), wk =   0.0830450
        k(   32) = (   0.2941176   0.2941176   0.0000000), wk =   0.0415225
        k(   33) = (   0.2941176   0.3529412   0.0000000), wk =   0.0415225

     Dense  grid:   369475 G-vectors     FFT dimensions: (  45,  45, 486)

     Smooth grid:    93023 G-vectors     FFT dimensions: (  25,  25, 320)

     Dynamical RAM for                 wfc:       2.23 MB

     Dynamical RAM for     wfc (w. buffer):      75.65 MB

     Dynamical RAM for           str. fact:       5.64 MB

     Dynamical RAM for           local pot:       0.00 MB

     Dynamical RAM for          nlocal pot:       3.03 MB

     Dynamical RAM for                qrad:       3.21 MB

     Dynamical RAM for          rho,v,vnew:      19.72 MB

     Dynamical RAM for               rhoin:       6.57 MB

     Dynamical RAM for            rho*nmix:      45.10 MB

     Dynamical RAM for           G-vectors:      10.93 MB

     Dynamical RAM for          h,s,v(r/c):       0.11 MB

     Dynamical RAM for          <psi|beta>:       0.01 MB

     Dynamical RAM for                 psi:       4.45 MB

     Dynamical RAM for                hpsi:       4.45 MB

     Dynamical RAM for                spsi:       4.45 MB

     Dynamical RAM for      wfcinit/wfcrot:       4.46 MB

     Dynamical RAM for           addusdens:     529.97 MB

     Estimated static dynamical RAM per process >     197.08 MB

     Estimated max dynamical RAM per process >     727.05 MB

     Estimated total dynamical RAM >       1.42 GB

     Initial potential from superposition of free atoms

     starting charge   24.99887, renormalised to   25.00000

     negative rho (up, down):  3.555E-04 0.000E+00
     Starting wfcs are   21 randomized atomic wfcs +    4 random wfcs
     Checking if some PAW data can be deallocated... 
       PAW data deallocated on    1 nodes for type:  1

     total cpu time spent up to now is       11.4 secs

     Self-consistent Calculation

     iteration #  1     ecut=    40.00 Ry     beta= 0.70
     Davidson diagonalization with overlap
     ethr =  1.00E-02,  avg # of iterations =  9.2

     negative rho (up, down):  4.225E-04 0.000E+00

     total cpu time spent up to now is       48.5 secs

     total energy              =    -450.94425867 Ry
     estimated scf accuracy    <       2.40679617 Ry

     iteration #  2     ecut=    40.00 Ry     beta= 0.70
     Davidson diagonalization with overlap
     ethr =  9.63E-03,  avg # of iterations =  6.0

     negative rho (up, down):  7.186E-04 0.000E+00

     total cpu time spent up to now is       89.4 secs

     total energy              =    -447.33256531 Ry
     estimated scf accuracy    <     208.75269574 Ry

     iteration #  3     ecut=    40.00 Ry     beta= 0.70
     Davidson diagonalization with overlap
     ethr =  9.63E-03,  avg # of iterations =  6.1

     negative rho (up, down):  5.361E-04 0.000E+00

     total cpu time spent up to now is      130.5 secs

     total energy              =    -451.87075822 Ry
     estimated scf accuracy    <      26.32284972 Ry

     iteration #  4     ecut=    40.00 Ry     beta= 0.70
     Davidson diagonalization with overlap
     ethr =  9.63E-03,  avg # of iterations =  2.8

     negative rho (up, down):  4.643E-04 0.000E+00

     total cpu time spent up to now is      156.2 secs

     total energy              =    -452.63411682 Ry
     estimated scf accuracy    <      12.74260934 Ry

     iteration #  5     ecut=    40.00 Ry     beta= 0.70
     Davidson diagonalization with overlap
     ethr =  9.63E-03,  avg # of iterations =  1.2

     negative rho (up, down):  4.425E-04 0.000E+00

     total cpu time spent up to now is      179.0 secs

     total energy              =    -453.00411248 Ry
     estimated scf accuracy    <       1.37512930 Ry

     iteration #  6     ecut=    40.00 Ry     beta= 0.70
     Davidson diagonalization with overlap
     ethr =  5.50E-03,  avg # of iterations =  1.3

     negative rho (up, down):  4.442E-04 0.000E+00

     total cpu time spent up to now is      202.0 secs

     total energy              =    -452.92905525 Ry
     estimated scf accuracy    <       1.63662285 Ry

     iteration #  7     ecut=    40.00 Ry     beta= 0.70
     Davidson diagonalization with overlap
     ethr =  5.50E-03,  avg # of iterations =  1.0

     negative rho (up, down):  4.463E-04 0.000E+00

     total cpu time spent up to now is      224.6 secs

     total energy              =    -452.98363946 Ry
     estimated scf accuracy    <       0.46919919 Ry

     iteration #  8     ecut=    40.00 Ry     beta= 0.70
     Davidson diagonalization with overlap
     ethr =  1.88E-03,  avg # of iterations =  2.1

     negative rho (up, down):  4.469E-04 0.000E+00

     total cpu time spent up to now is      248.2 secs

     total energy              =    -452.98396797 Ry
     estimated scf accuracy    <       0.30446518 Ry

     iteration #  9     ecut=    40.00 Ry     beta= 0.70
     Davidson diagonalization with overlap
     ethr =  1.22E-03,  avg # of iterations =  1.9

     negative rho (up, down):  4.422E-04 0.000E+00

     total cpu time spent up to now is      271.5 secs

     total energy              =    -452.99157115 Ry
     estimated scf accuracy    <       0.31835482 Ry

     iteration # 10     ecut=    40.00 Ry     beta= 0.70
     Davidson diagonalization with overlap
     ethr =  1.22E-03,  avg # of iterations =  1.3

     negative rho (up, down):  4.396E-04 0.000E+00

     total cpu time spent up to now is      294.4 secs

     total energy              =    -453.00229048 Ry
     estimated scf accuracy    <       0.54910741 Ry

     iteration # 11     ecut=    40.00 Ry     beta= 0.70
     Davidson diagonalization with overlap
     ethr =  1.22E-03,  avg # of iterations =  1.3

     negative rho (up, down):  4.567E-04 0.000E+00

     total cpu time spent up to now is      317.3 secs

     total energy              =    -452.96111939 Ry
     estimated scf accuracy    <       0.76175594 Ry

     iteration # 12     ecut=    40.00 Ry     beta= 0.70
     Davidson diagonalization with overlap
     ethr =  1.22E-03,  avg # of iterations =  1.0

     negative rho (up, down):  4.546E-04 0.000E+00

     total cpu time spent up to now is      339.9 secs

     total energy              =    -452.97132156 Ry
     estimated scf accuracy    <       0.00853713 Ry

     iteration # 13     ecut=    40.00 Ry     beta= 0.70
     Davidson diagonalization with overlap
     c_bands:  1 eigenvalues not converged
     ethr =  3.41E-05,  avg # of iterations =  9.4

     negative rho (up, down):  4.685E-04 0.000E+00

     total cpu time spent up to now is      370.7 secs

     total energy              =    -452.97472145 Ry
     estimated scf accuracy    <       0.00624436 Ry

     iteration # 14     ecut=    40.00 Ry     beta= 0.70
     Davidson diagonalization with overlap
     ethr =  2.50E-05,  avg # of iterations =  2.6

     negative rho (up, down):  4.673E-04 0.000E+00

     total cpu time spent up to now is      397.2 secs

     total energy              =    -452.97414901 Ry
     estimated scf accuracy    <       0.28660778 Ry

     iteration # 15     ecut=    40.00 Ry     beta= 0.70
     Davidson diagonalization with overlap
     ethr =  2.50E-05,  avg # of iterations =  1.0

     negative rho (up, down):  4.667E-04 0.000E+00

     total cpu time spent up to now is      419.8 secs

     total energy              =    -452.97017908 Ry
     estimated scf accuracy    <       0.11330221 Ry

     iteration # 16     ecut=    40.00 Ry     beta= 0.70
     Davidson diagonalization with overlap
     ethr =  2.50E-05,  avg # of iterations =  1.0

     negative rho (up, down):  4.683E-04 0.000E+00

     total cpu time spent up to now is      442.5 secs

     total energy              =    -452.97186864 Ry
     estimated scf accuracy    <       0.00189062 Ry

     iteration # 17     ecut=    40.00 Ry     beta= 0.70
     Davidson diagonalization with overlap
     ethr =  7.56E-06,  avg # of iterations =  1.5

     negative rho (up, down):  4.680E-04 0.000E+00

     total cpu time spent up to now is      465.5 secs

     total energy              =    -452.97200135 Ry
     estimated scf accuracy    <       0.00048881 Ry

     iteration # 18     ecut=    40.00 Ry     beta= 0.70
     Davidson diagonalization with overlap
     ethr =  1.96E-06,  avg # of iterations =  2.6

     negative rho (up, down):  4.686E-04 0.000E+00

     total cpu time spent up to now is      489.6 secs

     total energy              =    -452.97191131 Ry
     estimated scf accuracy    <       0.00487034 Ry

     iteration # 19     ecut=    40.00 Ry     beta= 0.70
     Davidson diagonalization with overlap
     ethr =  1.96E-06,  avg # of iterations =  1.0

     negative rho (up, down):  4.686E-04 0.000E+00

     total cpu time spent up to now is      512.2 secs

     total energy              =    -452.97194619 Ry
     estimated scf accuracy    <       0.00047645 Ry

     iteration # 20     ecut=    40.00 Ry     beta= 0.70
     Davidson diagonalization with overlap
     ethr =  1.91E-06,  avg # of iterations =  1.0

     negative rho (up, down):  4.685E-04 0.000E+00

     total cpu time spent up to now is      534.8 secs

     total energy              =    -452.97193469 Ry
     estimated scf accuracy    <       0.00039484 Ry

     iteration # 21     ecut=    40.00 Ry     beta= 0.70
     Davidson diagonalization with overlap
     ethr =  1.58E-06,  avg # of iterations =  1.0

     negative rho (up, down):  4.685E-04 0.000E+00

     total cpu time spent up to now is      557.3 secs

     total energy              =    -452.97193857 Ry
     estimated scf accuracy    <       0.00001348 Ry

     iteration # 22     ecut=    40.00 Ry     beta= 0.70
     Davidson diagonalization with overlap
     ethr =  5.39E-08,  avg # of iterations =  1.0

     negative rho (up, down):  4.685E-04 0.000E+00

     total cpu time spent up to now is      579.9 secs

     total energy              =    -452.97193890 Ry
     estimated scf accuracy    <       0.00000002 Ry

     iteration # 23     ecut=    40.00 Ry     beta= 0.70
     Davidson diagonalization with overlap
     ethr =  7.92E-11,  avg # of iterations =  3.5

     negative rho (up, down):  4.685E-04 0.000E+00

     total cpu time spent up to now is      608.2 secs

     total energy              =    -452.97193891 Ry
     estimated scf accuracy    <       0.00000004 Ry

     iteration # 24     ecut=    40.00 Ry     beta= 0.70
     Davidson diagonalization with overlap
     ethr =  7.92E-11,  avg # of iterations =  1.0

     negative rho (up, down):  4.685E-04 0.000E+00

     total cpu time spent up to now is      630.7 secs

     End of self-consistent calculation

          k = 0.0000 0.0000 0.0000 ( 11841 PWs)   bands (ev):

   -60.2186 -36.5491 -35.9877 -35.9877 -16.1511 -16.1511  -8.0392  -5.9279
    -5.9155  -4.8428  -4.3649  -4.3649  -3.4624  -3.4624  -3.4623  -3.4623
    -3.2734  -3.2734  -3.0485   1.4019   1.8369   2.3440   2.5747   2.5761
     3.1047

     occupation numbers 
     1.0000   1.0000   1.0000   1.0000   1.0000   1.0000   1.0000   1.0000
     1.0000   0.9405  -0.0330  -0.0330  -0.0000  -0.0000  -0.0000  -0.0000
    -0.0000  -0.0000  -0.0000  -0.0000  -0.0000  -0.0000  -0.0000  -0.0000
    -0.0000

          k = 0.0000 0.0679 0.0000 ( 11781 PWs)   bands (ev):

   -60.2179 -36.5481 -35.9952 -35.9895 -16.1238 -16.1237  -7.9574  -5.8955
    -5.8854  -4.8204  -4.4160  -4.3066  -3.6480  -3.6280  -3.5978  -3.4945
    -3.4943  -3.2882  -2.6779   1.4713   1.9126   2.4012   2.6245   2.6384
     3.1537

     occupation numbers 
     1.0000   1.0000   1.0000   1.0000   1.0000   1.0000   1.0000   1.0000
     1.0000   0.9042  -0.0148  -0.0342  -0.0000  -0.0000  -0.0000  -0.0000
    -0.0000  -0.0000  -0.0000  -0.0000  -0.0000  -0.0000  -0.0000  -0.0000
    -0.0000

          k = 0.0000 0.1358 0.0000 ( 11737 PWs)   bands (ev):

   -60.2158 -36.5455 -36.0168 -35.9947 -16.0437 -16.0437  -7.7185  -5.8009
    -5.7980  -4.7581  -4.5491  -4.1350  -4.0955  -4.0675  -3.9945  -3.5842
    -3.5840  -3.3303  -2.1932   1.6598   2.1202   2.5691   2.7655   2.8253
     3.3016

     occupation numbers 
     1.0000   1.0000   1.0000   1.0000   1.0000   1.0000   1.0000   1.0000
     1.0000   0.7681   0.1702  -0.0093  -0.0058  -0.0040  -0.0013  -0.0000
    -0.0000  -0.0000  -0.0000  -0.0000  -0.0000  -0.0000  -0.0000  -0.0000
    -0.0000

          k = 0.0000 0.2038 0.0000 ( 11725 PWs)   bands (ev):

   -60.2128 -36.5415 -36.0494 -36.0027 -15.9175 -15.9174  -7.3464  -5.6617
    -5.6529  -4.7498  -4.6984  -4.6828  -4.5888  -4.3715  -3.8602  -3.7144
    -3.7139  -3.3931  -1.6842   1.9349   2.4280   2.8269   2.9981   3.1285
     3.5518

     occupation numbers 
     1.0000   1.0000   1.0000   1.0000   1.0000   1.0000   1.0000   1.0000
     1.0000   0.7464   0.5987   0.5509   0.2692  -0.0318  -0.0001  -0.0000
    -0.0000  -0.0000  -0.0000  -0.0000  -0.0000  -0.0000  -0.0000  -0.0000
    -0.0000

          k = 0.0000 0.2717 0.0000 ( 11735 PWs)   bands (ev):

   -60.2091 -36.5367 -36.0885 -36.0123 -15.7564 -15.7564  -6.9005  -5.5014
    -5.4789  -5.3242  -5.3242  -4.8230  -4.6837  -4.5043  -3.8631  -3.8628
    -3.5007  -3.4672  -1.1559   2.2718   2.8100   3.1011   3.3599   3.5422
     3.9071

     occupation numbers 
     1.0000   1.0000   1.0000   1.0000   1.0000   1.0000   1.0000   1.0001
     1.0001   1.0017   1.0017   0.9087   0.5536   0.0819  -0.0001  -0.0001
    -0.0000  -0.0000  -0.0000  -0.0000  -0.0000  -0.0000  -0.0000  -0.0000
    -0.0000

          k = 0.0000 0.3396 0.0000 ( 11715 PWs)   bands (ev):

   -60.2053 -36.5317 -36.1287 -36.0222 -15.5777 -15.5777  -6.5169  -5.9603
    -5.9572  -5.3316  -5.2785  -4.9058  -4.6963  -4.3665  -4.0086  -4.0082
    -3.5421  -3.0880  -0.6145   2.6319   3.2098   3.2934   3.8630   4.0511
     4.0745

     occupation numbers 
     1.0000   1.0000   1.0000   1.0000   1.0000   1.0000   1.0000   1.0000
     1.0000   1.0015   1.0033   1.0077   0.5923  -0.0327  -0.0017  -0.0017
    -0.0000  -0.0000  -0.0000  -0.0000  -0.0000  -0.0000  -0.0000  -0.0000
    -0.0000

          k = 0.0000 0.4075 0.0000 ( 11655 PWs)   bands (ev):

   -60.2018 -36.5272 -36.1646 -36.0311 -15.4047 -15.4047  -6.4996  -6.4918
    -6.3335  -5.3106  -5.0786  -4.9363  -4.2867  -4.1828  -4.1330  -4.1326
    -3.6081  -2.6695  -0.0785   2.5800   2.9843   3.4318   3.5996   4.0288
     4.3423

     occupation numbers 
     1.0000   1.0000   1.0000   1.0000   1.0000   1.0000   1.0000   1.0000
     1.0000   1.0021   1.0270   1.0243  -0.0319  -0.0153  -0.0091  -0.0090
    -0.0000  -0.0000  -0.0000  -0.0000  -0.0000  -0.0000  -0.0000  -0.0000
    -0.0000

          k = 0.0000 0.4755 0.0000 ( 11632 PWs)   bands (ev):

   -60.1992 -36.5238 -36.1915 -36.0378 -15.2653 -15.2653  -6.8836  -6.8818
    -6.3260  -5.3975  -4.8973  -4.8290  -4.2231  -4.2227  -4.1534  -3.6569
    -3.5300  -2.3140   0.4040   1.4347   3.0825   3.3016   3.6013   3.8184
     4.4276

     occupation numbers 
     1.0000   1.0000   1.0000   1.0000   1.0000   1.0000   1.0000   1.0000
     1.0000   1.0005   1.0015   0.9189  -0.0217  -0.0217  -0.0114  -0.0000
    -0.0000  -0.0000  -0.0000  -0.0000  -0.0000  -0.0000  -0.0000  -0.0000
    -0.0000

          k = 0.0000 0.5434 0.0000 ( 11600 PWs)   bands (ev):

   -60.1978 -36.5220 -36.2058 -36.0413 -15.1868 -15.1868  -7.0900  -7.0888
    -6.3466  -5.4558  -4.7922  -4.7506  -4.2702  -4.2698  -4.0993  -3.6828
    -2.9343  -2.1044   0.6061   0.7223   3.0773   3.1106   3.5493   3.7024
     4.4685

     occupation numbers 
     1.0000   1.0000   1.0000   1.0000   1.0000   1.0000   1.0000   1.0000
     1.0000   1.0002   0.8488   0.7484  -0.0296  -0.0295  -0.0060  -0.0000
    -0.0000  -0.0000  -0.0000  -0.0000  -0.0000  -0.0000  -0.0000  -0.0000
    -0.0000

          k = 0.0588 0.1019 0.0000 ( 11743 PWs)   bands (ev):

   -60.2165 -36.5464 -36.0096 -35.9932 -16.0700 -16.0700  -7.7968  -5.8319
    -5.8267  -4.7775  -4.5120  -4.1884  -3.9585  -3.9237  -3.8805  -3.5621
    -3.5619  -3.3194  -2.3247   1.6000   2.0538   2.5139   2.7191   2.7637
     3.2521

     occupation numbers 
     1.0000   1.0000   1.0000   1.0000   1.0000   1.0000   1.0000   1.0000
     1.0000   0.8156   0.0952  -0.0162  -0.0007  -0.0004  -0.0002  -0.0000
    -0.0000  -0.0000  -0.0000  -0.0000  -0.0000  -0.0000  -0.0000  -0.0000
    -0.0000

          k = 0.0588 0.1698 0.0000 ( 11749 PWs)   bands (ev):

   -60.2139 -36.5431 -36.0362 -36.0004 -15.9668 -15.9668  -7.4885  -5.7146
    -5.7099  -4.7106  -4.6658  -4.4445  -4.4168  -4.2395  -3.9560  -3.6891
    -3.6888  -3.3791  -1.8622   1.8311   2.3107   2.7286   2.9042   3.0087
     3.4515

     occupation numbers 
     1.0000   1.0000   1.0000   1.0000   1.0000   1.0000   1.0000   1.0000
     1.0000   0.6354   0.4983   0.0061  -0.0143  -0.0245  -0.0007  -0.0000
    -0.0000  -0.0000  -0.0000  -0.0000  -0.0000  -0.0000  -0.0000  -0.0000
    -0.0000

          k = 0.0588 0.2377 0.0000 ( 11744 PWs)   bands (ev):

   -60.2106 -36.5387 -36.0713 -36.0099 -15.8229 -15.8229  -7.0679  -5.5627
    -5.5433  -5.0477  -5.0442  -4.8328  -4.5596  -4.5588  -3.8497  -3.8495
    -3.6240  -3.4575  -1.3562   2.1385   2.6571   2.9987   3.1991   3.3676
     3.7561

     occupation numbers 
     1.0000   1.0000   1.0000   1.0000   1.0000   1.0000   1.0000   1.0000
     1.0000   1.0317   1.0322   0.9252   0.1945   0.1926  -0.0001  -0.0001
    -0.0000  -0.0000  -0.0000  -0.0000  -0.0000  -0.0000  -0.0000  -0.0000
    -0.0000

          k = 0.0588 0.3057 0.0000 ( 11720 PWs)   bands (ev):

   -60.2068 -36.5337 -36.1102 -36.0204 -15.6524 -15.6524  -6.6235  -5.6736
    -5.6705  -5.3846  -5.3499  -4.8638  -4.8146  -4.4306  -4.0177  -4.0173
    -3.5432  -3.2162  -0.8239   2.4947   3.0595   3.2411   3.6411   3.8341
     4.1595

     occupation numbers 
     1.0000   1.0000   1.0000   1.0000   1.0000   1.0000   1.0000   1.0000
     1.0000   1.0006   1.0011   0.9685   0.8937  -0.0051  -0.0019  -0.0019
    -0.0000  -0.0000  -0.0000  -0.0000  -0.0000  -0.0000  -0.0000  -0.0000
    -0.0000

          k = 0.0588 0.3736 0.0000 ( 11671 PWs)   bands (ev):

   -60.2032 -36.5290 -36.1474 -36.0306 -15.4755 -15.4755  -6.3403  -6.2351
    -6.2206  -5.2846  -5.1662  -4.9426  -4.5977  -4.2969  -4.1706  -4.1695
    -3.6245  -2.7670  -0.2804   2.8217   3.2065   3.4125   3.6549   4.2228
     4.2613

     occupation numbers 
     1.0000   1.0000   1.0000   1.0000   1.0000   1.0000   1.0000   1.0000
     1.0000   1.0030   1.0131   1.0266   0.2937  -0.0332  -0.0136  -0.0135
    -0.0000  -0.0000  -0.0000  -0.0000  -0.0000  -0.0000  -0.0000  -0.0000
    -0.0000

          k = 0.0588 0.4415 0.0000 ( 11634 PWs)   bands (ev):

   -60.2002 -36.5251 -36.1781 -36.0390 -15.3179 -15.3179  -6.6910  -6.6885
    -6.2513  -5.3377  -4.9691  -4.8739  -4.2923  -4.2913  -4.1926  -4.0245
    -3.6908  -2.3237   0.2429   1.9987   3.0919   3.4577   3.6892   4.0448
     4.4540

     occupation numbers 
     1.0000   1.0000   1.0000   1.0000   1.0000   1.0000   1.0000   1.0000
     1.0000   1.0013   1.0332   0.9798  -0.0327  -0.0325  -0.0168  -0.0021
    -0.0000  -0.0000  -0.0000  -0.0000  -0.0000  -0.0000  -0.0000  -0.0000
    -0.0000

          k = 0.0588 0.5094 0.0000 ( 11599 PWs)   bands (ev):

   -60.1982 -36.5225 -36.1983 -36.0446 -15.2075 -15.2075  -6.9845  -6.9832
    -6.2710  -5.4130  -4.8223  -4.7715  -4.3684  -4.3681  -4.1128  -3.7341
    -3.4115  -1.9416   0.6696   0.9413   3.1271   3.2556   3.7152   3.8853
     4.6122

     occupation numbers 
     1.0000   1.0000   1.0000   1.0000   1.0000   1.0000   1.0000   1.0000
     1.0000   1.0004   0.9075   0.8015  -0.0324  -0.0324  -0.0071  -0.0000
    -0.0000  -0.0000  -0.0000  -0.0000  -0.0000  -0.0000  -0.0000  -0.0000
    -0.0000

          k = 0.0588 0.5774 0.0000 ( 11604 PWs)   bands (ev):

   -60.1975 -36.5216 -36.2053 -36.0465 -15.1677 -15.1677  -7.0867  -7.0856
    -6.2854  -5.4414  -4.7687  -4.7307  -4.3946  -4.3945  -4.0862  -3.7491
    -3.1231  -1.7489   0.4565   0.8485   3.1159   3.1396   3.6991   3.8259
     4.4925

     occupation numbers 
     1.0000   1.0000   1.0000   1.0000   1.0000   1.0000   1.0000   1.0000
     1.0000   1.0002   0.7946   0.6939  -0.0250  -0.0250  -0.0051  -0.0000
    -0.0000  -0.0000  -0.0000  -0.0000  -0.0000  -0.0000  -0.0000  -0.0000
    -0.0000

          k = 0.1176 0.2038 0.0000 ( 11751 PWs)   bands (ev):

   -60.2111 -36.5393 -36.0644 -36.0100 -15.8458 -15.8457  -7.1237  -5.5858
    -5.5667  -4.9272  -4.9203  -4.8448  -4.5795  -4.5047  -3.8752  -3.8752
    -3.6521  -3.4663  -1.4217   2.0947   2.6061   2.9604   3.1477   3.3096
     3.7060

     occupation numbers 
     1.0000   1.0000   1.0000   1.0000   1.0000   1.0000   1.0000   1.0000
     1.0000   1.0203   1.0167   0.9435   0.2444   0.0826  -0.0002  -0.0002
    -0.0000  -0.0000  -0.0000  -0.0000  -0.0000  -0.0000  -0.0000  -0.0000
    -0.0000

          k = 0.1176 0.2717 0.0000 ( 11728 PWs)   bands (ev):

   -60.2076 -36.5348 -36.0977 -36.0220 -15.6918 -15.6918  -6.6681  -5.4866
    -5.4714  -5.3958  -5.3684  -4.9967  -4.7391  -4.4673  -4.0989  -4.0986
    -3.5762  -3.2458  -0.9198   2.4270   2.9803   3.2010   3.5292   3.7230
     4.0692

     occupation numbers 
     1.0000   1.0000   1.0000   1.0000   1.0000   1.0000   1.0000   1.0001
     1.0001   1.0005   1.0008   1.0354   0.7175   0.0295  -0.0060  -0.0060
    -0.0000  -0.0000  -0.0000  -0.0000  -0.0000  -0.0000  -0.0000  -0.0000
    -0.0000

          k = 0.1176 0.3396 0.0000 ( 11694 PWs)   bands (ev):

   -60.2041 -36.5302 -36.1317 -36.0347 -15.5217 -15.5217  -6.2486  -5.9869
    -5.9784  -5.2826  -5.2139  -4.9610  -4.8969  -4.3459  -4.3177  -4.3101
    -3.6913  -2.7646  -0.3819   2.7840   3.3755   3.3994   4.0243   4.0916
     4.2373

     occupation numbers 
     1.0000   1.0000   1.0000   1.0000   1.0000   1.0000   1.0000   1.0000
     1.0000   1.0031   1.0077   1.0317   1.0011  -0.0351  -0.0350  -0.0345
    -0.0000  -0.0000  -0.0000  -0.0000  -0.0000  -0.0000  -0.0000  -0.0000
    -0.0000

          k = 0.1176 0.4075 0.0000 ( 11647 PWs)   bands (ev):

   -60.2009 -36.5260 -36.1620 -36.0461 -15.3578 -15.3578  -6.4507  -6.4472
    -6.0520  -5.2646  -5.0322  -4.8912  -4.6011  -4.5023  -4.5020  -4.2171
    -3.7947  -2.2433   0.1662   2.5984   3.1220   3.6112   3.7419   4.4525
     4.6875

     occupation numbers 
     1.0000   1.0000   1.0000   1.0000   1.0000   1.0000   1.0000   1.0000
     1.0000   1.0040   1.0336   0.9965   0.3033   0.0786   0.0781  -0.0207
    -0.0000  -0.0000  -0.0000  -0.0000  -0.0000  -0.0000  -0.0000  -0.0000
    -0.0000

          k = 0.1176 0.4755 0.0000 ( 11615 PWs)   bands (ev):

   -60.1985 -36.5228 -36.1848 -36.0547 -15.2264 -15.2264  -6.7916  -6.7902
    -6.0603  -5.3276  -4.8547  -4.7875  -4.6340  -4.6333  -4.1272  -4.0543
    -3.8723  -1.7193   0.6732   1.4224   3.2244   3.5131   3.9951   4.3143
     4.7308

     occupation numbers 
     1.0000   1.0000   1.0000   1.0000   1.0000   1.0000   1.0000   1.0000
     1.0000   1.0016   0.9571   0.8385   0.4000   0.3979  -0.0085  -0.0033
    -0.0001  -0.0000  -0.0000  -0.0000  -0.0000  -0.0000  -0.0000  -0.0000
    -0.0000

          k = 0.1176 0.5434 0.0000 ( 11605 PWs)   bands (ev):

   -60.1972 -36.5211 -36.1969 -36.0593 -15.1527 -15.1527  -6.9747  -6.9737
    -6.0923  -5.3706  -4.7561  -4.7154  -4.7009  -4.7006  -4.0765  -3.9138
    -3.6386  -1.2663   0.5444   1.0193   3.2351   3.3187   4.1069   4.1908
     4.5994

     occupation numbers 
     1.0000   1.0000   1.0000   1.0000   1.0000   1.0000   1.0000   1.0000
     1.0000   1.0008   0.7628   0.6496   0.6064   0.6054  -0.0045  -0.0003
    -0.0000  -0.0000  -0.0000  -0.0000  -0.0000  -0.0000  -0.0000  -0.0000
    -0.0000

          k = 0.1765 0.3057 0.0000 ( 11691 PWs)   bands (ev):

   -60.2044 -36.5306 -36.1249 -36.0374 -15.5377 -15.5377  -6.1907  -5.8732
    -5.8639  -5.2858  -5.1977  -5.1538  -4.8672  -4.4088  -4.4047  -4.3482
    -3.7283  -2.7556  -0.4115   2.7664   3.3564   3.4141   3.9893   4.1863
     4.4409

     occupation numbers 
     1.0000   1.0000   1.0000   1.0000   1.0000   1.0000   1.0000   1.0000
     1.0000   1.0030   1.0093   1.0148   0.9725  -0.0187  -0.0207  -0.0349
    -0.0000  -0.0000  -0.0000  -0.0000  -0.0000  -0.0000  -0.0000  -0.0000
    -0.0000

          k = 0.1765 0.3736 0.0000 ( 11638 PWs)   bands (ev):

   -60.2013 -36.5265 -36.1499 -36.0534 -15.3793 -15.3793  -6.2582  -6.2541
    -5.7711  -5.2188  -5.1715  -4.9771  -4.8826  -4.7011  -4.6998  -4.2343
    -3.8870  -2.1896   0.1392   3.0292   3.2475   3.6795   3.7197   4.5707
     4.6585

     occupation numbers 
     1.0000   1.0000   1.0000   1.0000   1.0000   1.0000   1.0000   1.0000
     1.0000   1.0072   1.0124   1.0343   0.9886   0.6069   0.6030  -0.0236
    -0.0002  -0.0000  -0.0000  -0.0000  -0.0000  -0.0000  -0.0000  -0.0000
    -0.0000

          k = 0.1765 0.4415 0.0000 ( 11633 PWs)   bands (ev):

   -60.1987 -36.5231 -36.1700 -36.0674 -15.2397 -15.2397  -6.5702  -6.5687
    -5.7225  -5.2357  -4.9414  -4.9357  -4.9014  -4.7919  -4.6504  -4.1341
    -4.0254  -1.5847   0.6948   1.9675   3.2930   3.7736   4.0204   4.3204
     4.7345

     occupation numbers 
     1.0000   1.0000   1.0000   1.0000   1.0000   1.0000   1.0000   1.0000
     1.0000   1.0059   1.0262   1.0240   1.0046   0.8480   0.4503  -0.0092
    -0.0022  -0.0000  -0.0000  -0.0000  -0.0000  -0.0000  -0.0000  -0.0000
    -0.0000

          k = 0.1765 0.5094 0.0000 ( 11610 PWs)   bands (ev):

   -60.1969 -36.5208 -36.1829 -36.0768 -15.1428 -15.1428  -6.7792  -6.7782
    -5.7801  -5.2626  -5.0867  -5.0833  -4.7517  -4.7036  -4.2111  -4.1195
    -4.0658  -0.9732   0.9059   1.1747   3.3551   3.6142   3.8550   4.4894
     4.5611

     occupation numbers 
     1.0000   1.0000   1.0000   1.0000   1.0000   1.0000   1.0000   1.0000
     1.0000   1.0041   1.0256   1.0262   0.7513   0.6146  -0.0197  -0.0077
    -0.0039  -0.0000  -0.0000  -0.0000  -0.0000  -0.0000  -0.0000  -0.0000
    -0.0000

          k = 0.1765 0.5774 0.0000 ( 11628 PWs)   bands (ev):

   -60.1963 -36.5200 -36.1874 -36.0801 -15.1081 -15.1081  -6.8528  -6.8520
    -5.8056  -5.2730  -5.1373  -5.1330  -4.7029  -4.6698  -4.1527  -4.0504
    -4.0067  -0.5462   0.3050   1.3895   3.3542   3.4751   3.7455   4.4971
     4.6053

     occupation numbers 
     1.0000   1.0000   1.0000   1.0000   1.0000   1.0000   1.0000   1.0000
     1.0000   1.0036   1.0172   1.0179   0.6123   0.5107  -0.0113  -0.0031
    -0.0016  -0.0000  -0.0000  -0.0000  -0.0000  -0.0000  -0.0000  -0.0000
    -0.0000

          k = 0.2353 0.4075 0.0000 ( 11615 PWs)   bands (ev):

   -60.1987 -36.5232 -36.1629 -36.0737 -15.2444 -15.2444  -6.4571  -6.4556
    -5.2930  -5.2608  -5.1949  -5.0836  -5.0813  -4.8309  -4.7895  -4.1375
    -4.0958  -1.5412   0.7052   2.2901   3.2795   3.8014   3.8896   4.2391
     4.9071

     occupation numbers 
     1.0000   1.0000   1.0000   1.0000   1.0000   1.0000   1.0000   1.0000
     1.0027   1.0042   1.0096   1.0262   1.0265   0.9221   0.8429  -0.0096
    -0.0058  -0.0000  -0.0000  -0.0000  -0.0000  -0.0000  -0.0000  -0.0000
    -0.0000

          k = 0.2353 0.4755 0.0000 ( 11611 PWs)   bands (ev):

   -60.1968 -36.5207 -36.1700 -36.0916 -15.1381 -15.1381  -6.5858  -6.5849
    -5.3981  -5.3929  -5.3808  -5.1610  -4.8340  -4.6955  -4.6577  -4.2779
    -4.0650  -0.8650   1.2636   1.3609   3.0492   3.6421   3.9498   4.6579
     4.6734

     occupation numbers 
     1.0000   1.0000   1.0000   1.0000   1.0000   1.0000   1.0000   1.0000
     1.0005   1.0005   1.0006   1.0138   0.9271   0.5898   0.4731  -0.0307
    -0.0038  -0.0000  -0.0000  -0.0000  -0.0000  -0.0000  -0.0000  -0.0000
    -0.0000

          k = 0.2353 0.5434 0.0000 ( 11652 PWs)   bands (ev):

   -60.1958 -36.5193 -36.1725 -36.1025 -15.0791 -15.0791  -6.6463  -6.6456
    -5.5647  -5.5646  -5.4417  -5.1313  -4.6826  -4.6455  -4.4232  -4.3856
    -4.0306  -0.1878   0.5344   1.6819   2.7174   3.7315   3.7530   4.6953
     4.9288

     occupation numbers 
     1.0000   1.0000   1.0000   1.0000   1.0000   1.0000   1.0000   1.0000
     1.0000   1.0000   1.0002   1.0182   0.5502   0.4353  -0.0103  -0.0281
    -0.0023  -0.0000  -0.0000  -0.0000  -0.0000  -0.0000  -0.0000  -0.0000
    -0.0000

          k = 0.2941 0.5094 0.0000 ( 11632 PWs)   bands (ev):

   -60.1956 -36.5191 -36.1627 -36.1150 -15.0691 -15.0691  -6.5002  -6.4995
    -5.7893  -5.7891  -5.1561  -5.0468  -4.7935  -4.6476  -4.6098  -4.4951
    -4.0248  -0.1830   0.9225   1.7941   2.2334   3.8889   3.9731   4.4736
     5.0053

     occupation numbers 
     1.0000   1.0000   1.0000   1.0000   1.0000   1.0000   1.0000   1.0000
     1.0000   1.0000   1.0144   1.0319   0.8514   0.4417   0.3283   0.0672
    -0.0021  -0.0000  -0.0000  -0.0000  -0.0000  -0.0000  -0.0000  -0.0000
    -0.0000

          k = 0.2941 0.5774 0.0000 ( 11640 PWs)   bands (ev):

   -60.1952 -36.5185 -36.1552 -36.1280 -15.0447 -15.0447  -6.4052  -6.4046
    -5.9930  -5.9927  -5.0951  -4.9565  -4.7517  -4.7021  -4.5852  -4.5494
    -4.0137   0.1555   0.8021   1.7952   2.0571   3.7781   4.1187   4.6071
     4.7020

     occupation numbers 
     1.0000   1.0000   1.0000   1.0000   1.0000   1.0000   1.0000   1.0000
     1.0000   1.0000   1.0242   1.0307   0.7514   0.6099   0.2595   0.1709
    -0.0018  -0.0000  -0.0000  -0.0000  -0.0000  -0.0000  -0.0000  -0.0000
    -0.0000

     the Fermi energy is    -4.6664 ev

!    total energy              =    -452.97193891 Ry

     total all-electron energy =     -9223.176450 Ry
     estimated scf accuracy    <          4.2E-09 Ry
     smearing contrib. (-TS)   =      -0.00241145 Ry
     internal energy E=F+TS    =    -452.96952746 Ry

     The total energy is F=E-TS. E is the sum of the following terms:
     one-electron contribution =   -1481.46487760 Ry
     hartree contribution      =     740.16232875 Ry
     xc contribution           =     -31.35781373 Ry
     ewald contribution        =     613.75036080 Ry
     one-center paw contrib.   =    -294.05952568 Ry
      -> PAW hartree energy AE =      81.90399726 Ry
      -> PAW hartree energy PS =     -81.41863313 Ry
      -> PAW xc energy AE      =    -275.72413363 Ry
      -> PAW xc energy PS      =      22.85081552 Ry
      -> total E_H with PAW    =     740.64769288 Ry
      -> total E_XC with PAW   =    -284.23113185 Ry

     convergence has been achieved in  24 iterations

     Writing output data file ./tmp/NbS2.save/

     init_run     :      9.97s CPU     10.40s WALL (       1 calls)
     electrons    :    601.53s CPU    619.29s WALL (       1 calls)

     Called by init_run:
     wfcinit      :      7.35s CPU      7.45s WALL (       1 calls)
     wfcinit:atom :      0.07s CPU      0.07s WALL (      33 calls)
     wfcinit:wfcr :      7.13s CPU      7.22s WALL (      33 calls)
     potinit      :      0.65s CPU      0.68s WALL (       1 calls)
     hinit0       :      0.97s CPU      0.99s WALL (       1 calls)

     Called by electrons:
     c_bands      :    450.66s CPU    455.15s WALL (      24 calls)
     sum_band     :    121.68s CPU    129.46s WALL (      24 calls)
     v_of_rho     :      2.07s CPU      2.14s WALL (      25 calls)
     v_h          :      1.15s CPU      1.19s WALL (      25 calls)
     v_xc         :      0.92s CPU      0.94s WALL (      25 calls)
     newd         :     22.76s CPU     28.33s WALL (      25 calls)
     PAW_pot      :      1.32s CPU      1.33s WALL (      25 calls)
     mix_rho      :      2.57s CPU      2.62s WALL (      24 calls)

     Called by c_bands:
     init_us_2    :      3.81s CPU      3.88s WALL (    1617 calls)
     cegterg      :    443.13s CPU    447.41s WALL (     792 calls)

     Called by sum_band:
     sum_band:wei :      0.03s CPU      0.03s WALL (      24 calls)
     sum_band:loo :     85.24s CPU     86.10s WALL (      24 calls)
     sum_band:buf :      0.91s CPU      0.91s WALL (     792 calls)
     sum_band:ini :      1.85s CPU      1.85s WALL (     792 calls)
     sum_band:cal :      9.02s CPU      9.05s WALL (     792 calls)
     sum_band:bec :      0.02s CPU      0.02s WALL (     792 calls)
     addusdens    :     34.75s CPU     41.58s WALL (      24 calls)
     addusd:skk   :      0.06s CPU      0.08s WALL (      48 calls)
     addusd:dgemm :      8.98s CPU     14.60s WALL (      48 calls)
     addusd:qvan2 :     24.04s CPU     24.05s WALL (      48 calls)

     Called by *egterg:
     cdiaghg      :      2.23s CPU      2.24s WALL (    2833 calls)
     cegterg:over :     28.51s CPU     28.55s WALL (    2041 calls)
     cegterg:upda :     16.18s CPU     16.25s WALL (    2041 calls)
     cegterg:last :     35.33s CPU     35.35s WALL (    1208 calls)
     h_psi        :    331.03s CPU    335.14s WALL (    2866 calls)
     s_psi        :     20.14s CPU     20.20s WALL (    2866 calls)
     g_psi        :      0.75s CPU      0.75s WALL (    2041 calls)

     Called by h_psi:
     h_psi:calbec :     21.69s CPU     21.83s WALL (    2866 calls)
     vloc_psi     :    288.61s CPU    292.52s WALL (    2866 calls)
     add_vuspsi   :     18.72s CPU     18.75s WALL (    2866 calls)

     General routines
     calbec       :     30.68s CPU     30.86s WALL (    3658 calls)
     fft          :      5.35s CPU      5.51s WALL (     148 calls)
     ffts         :      0.29s CPU      0.29s WALL (      49 calls)
     fftw         :    300.16s CPU    304.02s WALL (  111974 calls)
     interpolate  :      1.15s CPU      1.16s WALL (      25 calls)

     Parallel routines
     fft_scatt_xy :     48.36s CPU     48.93s WALL (  112171 calls)
     fft_scatt_yz :     22.61s CPU     23.08s WALL (  112171 calls)

     PAW routines
     PAW_pot      :      1.32s CPU      1.33s WALL (      25 calls)
     PAW_symme    :      0.01s CPU      0.01s WALL (      49 calls)

     PWSCF        :  10m12.72s CPU  10m32.05s WALL


   This run was terminated on:  17:20:12  10Jun2021            

=------------------------------------------------------------------------------=
   JOB DONE.
=------------------------------------------------------------------------------=
