
     Program PWSCF v.6.6 starts on 10Jun2021 at 16:36:14 

     This program is part of the open-source Quantum ESPRESSO suite
     for quantum simulation of materials; please cite
         "P. Giannozzi et al., J. Phys.:Condens. Matter 21 395502 (2009);
         "P. Giannozzi et al., J. Phys.:Condens. Matter 29 465901 (2017);
          URL http://www.quantum-espresso.org", 
     in publications or presentations arising from this work. More details at
     http://www.quantum-espresso.org/quote

     Parallel version (MPI), running on     2 processors

     MPI processes distributed on     1 nodes
     R & G space division:  proc/nbgrp/npool/nimage =       2
     Fft bands division:     nmany     =       1
     Waiting for input...
     Reading input from standard input

     Current dimensions of program PWSCF are:
     Max number of different atomic species (ntypx) = 10
     Max number of k-points (npk) =  40000
     Max angular momentum in pseudopotentials (lmaxx) =  3
     file Nb.pz-spn-kjpaw_psl.1.0.0.UPF: wavefunction(s)  4S 4P 4D renormalized
     file S.pz-n-kjpaw_psl.0.1.UPF: wavefunction(s)  3P renormalized

     Subspace diagonalization in iterative solution of the eigenvalue problem:
     a serial algorithm will be used


     Parallelization info
     --------------------
     sticks:   dense  smooth     PW     G-vecs:    dense   smooth      PW
     Min         579     225     69               184729    46499    7607
     Max         580     226     70               184746    46524    7626
     Sum        1159     451    139               369475    93023   15233



     bravais-lattice index     =            4
     lattice parameter (alat)  =       6.4591  a.u.
     unit-cell volume          =    2731.0606 (a.u.)^3
     number of atoms/cell      =            3
     number of atomic types    =            2
     number of electrons       =        25.00
     number of Kohn-Sham states=           25
     kinetic-energy cutoff     =      40.0000  Ry
     charge density cutoff     =     400.0000  Ry
     convergence threshold     =      1.0E-08
     mixing beta               =       0.7000
     number of iterations used =            8  plain     mixing
     Exchange-correlation= SLA PZ NOGX NOGC
                           (   1   1   0   0   0   0   0)

     celldm(1)=   6.459084  celldm(2)=   0.000000  celldm(3)=  11.702750
     celldm(4)=   0.000000  celldm(5)=   0.000000  celldm(6)=   0.000000

     crystal axes: (cart. coord. in units of alat)
               a(1) = (   1.000000   0.000000   0.000000 )  
               a(2) = (  -0.500000   0.866025   0.000000 )  
               a(3) = (   0.000000   0.000000  11.702750 )  

     reciprocal axes: (cart. coord. in units 2 pi/alat)
               b(1) = (  1.000000  0.577350 -0.000000 )  
               b(2) = (  0.000000  1.154701  0.000000 )  
               b(3) = (  0.000000 -0.000000  0.085450 )  


     PseudoPot. # 1 for Nb read from file:
     ../Nb.pz-spn-kjpaw_psl.1.0.0.UPF
     MD5 check sum: 38c2e04b3cc915696ca8dc9f46a23270
     Pseudo is Projector augmented-wave + core cor, Zval = 13.0
     Generated using "atomic" code by A. Dal Corso v.6.2.2
     Shape of augmentation charge: PSQ
     Using radial grid of 1227 points,  6 beta functions with: 
                l(1) =   0
                l(2) =   0
                l(3) =   1
                l(4) =   1
                l(5) =   2
                l(6) =   2
     Q(r) pseudized with 0 coefficients 


     PseudoPot. # 2 for S  read from file:
     ../S.pz-n-kjpaw_psl.0.1.UPF
     MD5 check sum: c0b1682311cf098e03f7841691d9a679
     Pseudo is Projector augmented-wave + core cor, Zval =  6.0
     Generated using "atomic" code by A. Dal Corso v.5.0.2 svn rev. 9415
     Shape of augmentation charge: PSQ
     Using radial grid of 1151 points,  4 beta functions with: 
                l(1) =   0
                l(2) =   0
                l(3) =   1
                l(4) =   1
     Q(r) pseudized with 0 coefficients 


     atomic species   valence    mass     pseudopotential
        Nb            13.00    92.90600     Nb( 1.00)
        S              6.00    32.06500     S ( 1.00)

     12 Sym. Ops. (no inversion) found ( 6 have fractional translation)


                                    s                        frac. trans.

      isym =  1     identity                                     

 cryst.   s( 1) = (     1          0          0      )
                  (     0          1          0      )
                  (     0          0          1      )

 cart.    s( 1) = (  1.0000000  0.0000000  0.0000000 )
                  (  0.0000000  1.0000000  0.0000000 )
                  (  0.0000000  0.0000000  1.0000000 )


      isym =  2     180 deg rotation - cart. axis [0,1,0]        

 cryst.   s( 2) = (    -1          0          0      )    f =(  0.0000000 )
                  (     1          1          0      )       (  0.0000000 )
                  (     0          0         -1      )       (  0.5000000 )

 cart.    s( 2) = ( -1.0000000  0.0000000  0.0000000 )    f =(  0.0000000 )
                  (  0.0000000  1.0000000  0.0000000 )       (  0.0000000 )
                  (  0.0000000  0.0000000 -1.0000000 )       (  5.8513751 )


      isym =  3     120 deg rotation - cryst. axis [0,0,1]       

 cryst.   s( 3) = (     0          1          0      )
                  (    -1         -1          0      )
                  (     0          0          1      )

 cart.    s( 3) = ( -0.5000000 -0.8660254  0.0000000 )
                  (  0.8660254 -0.5000000  0.0000000 )
                  (  0.0000000  0.0000000  1.0000000 )


      isym =  4     120 deg rotation - cryst. axis [0,0,-1]      

 cryst.   s( 4) = (    -1         -1          0      )
                  (     1          0          0      )
                  (     0          0          1      )

 cart.    s( 4) = ( -0.5000000  0.8660254  0.0000000 )
                  ( -0.8660254 -0.5000000  0.0000000 )
                  (  0.0000000  0.0000000  1.0000000 )


      isym =  5     180 deg rotation - cryst. axis [1,-1,0]      

 cryst.   s( 5) = (     0         -1          0      )    f =(  0.0000000 )
                  (    -1          0          0      )       (  0.0000000 )
                  (     0          0         -1      )       (  0.5000000 )

 cart.    s( 5) = (  0.5000000 -0.8660254  0.0000000 )    f =(  0.0000000 )
                  ( -0.8660254 -0.5000000  0.0000000 )       (  0.0000000 )
                  (  0.0000000  0.0000000 -1.0000000 )       (  5.8513751 )


      isym =  6     180 deg rotation - cryst. axis [2,1,0]       

 cryst.   s( 6) = (     1          1          0      )    f =(  0.0000000 )
                  (     0         -1          0      )       (  0.0000000 )
                  (     0          0         -1      )       (  0.5000000 )

 cart.    s( 6) = (  0.5000000  0.8660254  0.0000000 )    f =( -0.0000000 )
                  (  0.8660254 -0.5000000  0.0000000 )       (  0.0000000 )
                  (  0.0000000  0.0000000 -1.0000000 )       (  5.8513751 )


      isym =  7     inv. 180 deg rotation - cart. axis [0,0,1]   

 cryst.   s( 7) = (     1          0          0      )    f =(  0.0000000 )
                  (     0          1          0      )       (  0.0000000 )
                  (     0          0         -1      )       (  0.5000000 )

 cart.    s( 7) = (  1.0000000  0.0000000  0.0000000 )    f =(  0.0000000 )
                  (  0.0000000  1.0000000  0.0000000 )       (  0.0000000 )
                  (  0.0000000  0.0000000 -1.0000000 )       (  5.8513751 )


      isym =  8     inv. 180 deg rotation - cart. axis [1,0,0]   

 cryst.   s( 8) = (    -1          0          0      )
                  (     1          1          0      )
                  (     0          0          1      )

 cart.    s( 8) = ( -1.0000000  0.0000000  0.0000000 )
                  (  0.0000000  1.0000000  0.0000000 )
                  (  0.0000000  0.0000000  1.0000000 )


      isym =  9     inv.  60 deg rotation - cryst. axis [0,0,1]  

 cryst.   s( 9) = (    -1         -1          0      )    f =(  0.0000000 )
                  (     1          0          0      )       (  0.0000000 )
                  (     0          0         -1      )       (  0.5000000 )

 cart.    s( 9) = ( -0.5000000  0.8660254  0.0000000 )    f =( -0.0000000 )
                  ( -0.8660254 -0.5000000  0.0000000 )       (  0.0000000 )
                  (  0.0000000  0.0000000 -1.0000000 )       (  5.8513751 )


      isym = 10     inv.  60 deg rotation - cryst. axis [0,0,-1] 

 cryst.   s(10) = (     0          1          0      )    f =(  0.0000000 )
                  (    -1         -1          0      )       (  0.0000000 )
                  (     0          0         -1      )       (  0.5000000 )

 cart.    s(10) = ( -0.5000000 -0.8660254  0.0000000 )    f =(  0.0000000 )
                  (  0.8660254 -0.5000000  0.0000000 )       (  0.0000000 )
                  (  0.0000000  0.0000000 -1.0000000 )       (  5.8513751 )


      isym = 11     inv. 180 deg rotation - cryst. axis [0,1,0]  

 cryst.   s(11) = (     1          1          0      )
                  (     0         -1          0      )
                  (     0          0          1      )

 cart.    s(11) = (  0.5000000  0.8660254  0.0000000 )
                  (  0.8660254 -0.5000000  0.0000000 )
                  (  0.0000000  0.0000000  1.0000000 )


      isym = 12     inv. 180 deg rotation - cryst. axis [1,1,0]  

 cryst.   s(12) = (     0         -1          0      )
                  (    -1          0          0      )
                  (     0          0          1      )

 cart.    s(12) = (  0.5000000 -0.8660254  0.0000000 )
                  ( -0.8660254 -0.5000000  0.0000000 )
                  (  0.0000000  0.0000000  1.0000000 )


     point group D_3h (-62m)
     there are  6 classes
     the character table:

       E     2C3   3C2   s_h   2S3   3s_v 
A'_1   1.00  1.00  1.00  1.00  1.00  1.00
A'_2   1.00  1.00 -1.00  1.00  1.00 -1.00
E'     2.00 -1.00  0.00  2.00 -1.00  0.00
A''1   1.00  1.00  1.00 -1.00 -1.00 -1.00
A''2   1.00  1.00 -1.00 -1.00 -1.00  1.00
E''    2.00 -1.00  0.00 -2.00  1.00  0.00

     the symmetry operations in each class and the name of the first element:

     E        1
          identity                                               
     2C3      3    4
          120 deg rotation - cryst. axis [0,0,1]                 
     3C2      2    6    5
          180 deg rotation - cart. axis [0,1,0]                  
     s_h      7
          inv. 180 deg rotation - cart. axis [0,0,1]             
     2S3      9   10
          inv.  60 deg rotation - cryst. axis [0,0,1]            
     3s_v     8   11   12
          inv. 180 deg rotation - cart. axis [1,0,0]             

   Cartesian axes

     site n.     atom                  positions (alat units)
         1           S   tau(   1) = (   0.0000000   0.5773503   4.3089526  )
         2           Nb  tau(   2) = (   0.0000000   0.0000000   2.9256875  )
         3           S   tau(   3) = (   0.0000000   0.5773503   1.5424225  )

   Crystallographic axes

     site n.     atom                  positions (cryst. coord.)
         1           S   tau(   1) = (  0.3333333  0.6666667  0.3682000  )
         2           Nb  tau(   2) = (  0.0000000  0.0000000  0.2500000  )
         3           S   tau(   3) = (  0.3333333  0.6666667  0.1318000  )

     number of k points=    21  Methfessel-Paxton smearing, width (Ry)=  0.0200
                       cart. coord. in units 2pi/alat
        k(    1) = (   0.0000000   0.0000000   0.0000000), wk =   0.0118343
        k(    2) = (   0.0000000   0.0888231   0.0000000), wk =   0.0710059
        k(    3) = (   0.0000000   0.1776462   0.0000000), wk =   0.0710059
        k(    4) = (   0.0000000   0.2664694   0.0000000), wk =   0.0710059
        k(    5) = (   0.0000000   0.3552925   0.0000000), wk =   0.0710059
        k(    6) = (   0.0000000   0.4441156   0.0000000), wk =   0.0710059
        k(    7) = (   0.0000000   0.5329387   0.0000000), wk =   0.0710059
        k(    8) = (   0.0769231   0.1332347   0.0000000), wk =   0.0710059
        k(    9) = (   0.0769231   0.2220578   0.0000000), wk =   0.1420118
        k(   10) = (   0.0769231   0.3108809   0.0000000), wk =   0.1420118
        k(   11) = (   0.0769231   0.3997040   0.0000000), wk =   0.1420118
        k(   12) = (   0.0769231   0.4885272   0.0000000), wk =   0.1420118
        k(   13) = (   0.0769231   0.5773503   0.0000000), wk =   0.0710059
        k(   14) = (   0.1538462   0.2664694   0.0000000), wk =   0.0710059
        k(   15) = (   0.1538462   0.3552925   0.0000000), wk =   0.1420118
        k(   16) = (   0.1538462   0.4441156   0.0000000), wk =   0.1420118
        k(   17) = (   0.1538462   0.5329387   0.0000000), wk =   0.1420118
        k(   18) = (   0.2307692   0.3997040   0.0000000), wk =   0.0710059
        k(   19) = (   0.2307692   0.4885272   0.0000000), wk =   0.1420118
        k(   20) = (   0.2307692   0.5773503   0.0000000), wk =   0.0710059
        k(   21) = (   0.3076923   0.5329387   0.0000000), wk =   0.0710059

                       cryst. coord.
        k(    1) = (   0.0000000   0.0000000   0.0000000), wk =   0.0118343
        k(    2) = (   0.0000000   0.0769231   0.0000000), wk =   0.0710059
        k(    3) = (   0.0000000   0.1538462   0.0000000), wk =   0.0710059
        k(    4) = (   0.0000000   0.2307692   0.0000000), wk =   0.0710059
        k(    5) = (   0.0000000   0.3076923   0.0000000), wk =   0.0710059
        k(    6) = (   0.0000000   0.3846154   0.0000000), wk =   0.0710059
        k(    7) = (   0.0000000   0.4615385   0.0000000), wk =   0.0710059
        k(    8) = (   0.0769231   0.0769231   0.0000000), wk =   0.0710059
        k(    9) = (   0.0769231   0.1538462   0.0000000), wk =   0.1420118
        k(   10) = (   0.0769231   0.2307692   0.0000000), wk =   0.1420118
        k(   11) = (   0.0769231   0.3076923   0.0000000), wk =   0.1420118
        k(   12) = (   0.0769231   0.3846154   0.0000000), wk =   0.1420118
        k(   13) = (   0.0769231   0.4615385   0.0000000), wk =   0.0710059
        k(   14) = (   0.1538462   0.1538462   0.0000000), wk =   0.0710059
        k(   15) = (   0.1538462   0.2307692   0.0000000), wk =   0.1420118
        k(   16) = (   0.1538462   0.3076923   0.0000000), wk =   0.1420118
        k(   17) = (   0.1538462   0.3846154   0.0000000), wk =   0.1420118
        k(   18) = (   0.2307692   0.2307692   0.0000000), wk =   0.0710059
        k(   19) = (   0.2307692   0.3076923   0.0000000), wk =   0.1420118
        k(   20) = (   0.2307692   0.3846154   0.0000000), wk =   0.0710059
        k(   21) = (   0.3076923   0.3076923   0.0000000), wk =   0.0710059

     Dense  grid:   369475 G-vectors     FFT dimensions: (  45,  45, 486)

     Smooth grid:    93023 G-vectors     FFT dimensions: (  25,  25, 320)

     Dynamical RAM for                 wfc:       2.23 MB

     Dynamical RAM for     wfc (w. buffer):      48.95 MB

     Dynamical RAM for           str. fact:       5.64 MB

     Dynamical RAM for           local pot:       0.00 MB

     Dynamical RAM for          nlocal pot:       3.03 MB

     Dynamical RAM for                qrad:       3.21 MB

     Dynamical RAM for          rho,v,vnew:      19.72 MB

     Dynamical RAM for               rhoin:       6.57 MB

     Dynamical RAM for            rho*nmix:      45.10 MB

     Dynamical RAM for           G-vectors:      10.93 MB

     Dynamical RAM for          h,s,v(r/c):       0.11 MB

     Dynamical RAM for          <psi|beta>:       0.01 MB

     Dynamical RAM for                 psi:       4.45 MB

     Dynamical RAM for                hpsi:       4.45 MB

     Dynamical RAM for                spsi:       4.45 MB

     Dynamical RAM for      wfcinit/wfcrot:       4.46 MB

     Dynamical RAM for           addusdens:     529.97 MB

     Estimated static dynamical RAM per process >     170.38 MB

     Estimated max dynamical RAM per process >     700.35 MB

     Estimated total dynamical RAM >       1.37 GB

     Initial potential from superposition of free atoms

     starting charge   24.99887, renormalised to   25.00000

     negative rho (up, down):  3.555E-04 0.000E+00
     Starting wfcs are   21 randomized atomic wfcs +    4 random wfcs
     Checking if some PAW data can be deallocated... 
       PAW data deallocated on    1 nodes for type:  1

     total cpu time spent up to now is        8.8 secs

     Self-consistent Calculation

     iteration #  1     ecut=    40.00 Ry     beta= 0.70
     Davidson diagonalization with overlap
     ethr =  1.00E-02,  avg # of iterations =  9.6

     negative rho (up, down):  4.224E-04 0.000E+00

     total cpu time spent up to now is       33.7 secs

     total energy              =    -450.93670307 Ry
     estimated scf accuracy    <       2.41403595 Ry

     iteration #  2     ecut=    40.00 Ry     beta= 0.70
     Davidson diagonalization with overlap
     ethr =  9.66E-03,  avg # of iterations =  6.1

     negative rho (up, down):  7.201E-04 0.000E+00

     total cpu time spent up to now is       61.6 secs

     total energy              =    -447.34664546 Ry
     estimated scf accuracy    <     208.84414747 Ry

     iteration #  3     ecut=    40.00 Ry     beta= 0.70
     Davidson diagonalization with overlap
     ethr =  9.66E-03,  avg # of iterations =  5.9

     negative rho (up, down):  5.384E-04 0.000E+00

     total cpu time spent up to now is       89.0 secs

     total energy              =    -451.84830417 Ry
     estimated scf accuracy    <      26.72785158 Ry

     iteration #  4     ecut=    40.00 Ry     beta= 0.70
     Davidson diagonalization with overlap
     ethr =  9.66E-03,  avg # of iterations =  3.3

     negative rho (up, down):  4.670E-04 0.000E+00

     total cpu time spent up to now is      107.0 secs

     total energy              =    -452.65534726 Ry
     estimated scf accuracy    <      12.95921267 Ry

     iteration #  5     ecut=    40.00 Ry     beta= 0.70
     Davidson diagonalization with overlap
     ethr =  9.66E-03,  avg # of iterations =  1.2

     negative rho (up, down):  4.440E-04 0.000E+00

     total cpu time spent up to now is      122.9 secs

     total energy              =    -452.99890908 Ry
     estimated scf accuracy    <       0.95905711 Ry

     iteration #  6     ecut=    40.00 Ry     beta= 0.70
     Davidson diagonalization with overlap
     ethr =  3.84E-03,  avg # of iterations =  1.6

     negative rho (up, down):  4.453E-04 0.000E+00

     total cpu time spent up to now is      139.0 secs

     total energy              =    -452.92927899 Ry
     estimated scf accuracy    <       1.41898495 Ry

     iteration #  7     ecut=    40.00 Ry     beta= 0.70
     Davidson diagonalization with overlap
     ethr =  3.84E-03,  avg # of iterations =  1.3

     negative rho (up, down):  4.477E-04 0.000E+00

     total cpu time spent up to now is      154.7 secs

     total energy              =    -452.98431969 Ry
     estimated scf accuracy    <       0.63371557 Ry

     iteration #  8     ecut=    40.00 Ry     beta= 0.70
     Davidson diagonalization with overlap
     ethr =  2.53E-03,  avg # of iterations =  1.0

     negative rho (up, down):  4.489E-04 0.000E+00

     total cpu time spent up to now is      170.2 secs

     total energy              =    -452.98166726 Ry
     estimated scf accuracy    <       0.40282027 Ry

     iteration #  9     ecut=    40.00 Ry     beta= 0.70
     Davidson diagonalization with overlap
     ethr =  1.61E-03,  avg # of iterations =  2.0

     negative rho (up, down):  4.468E-04 0.000E+00

     total cpu time spent up to now is      186.5 secs

     total energy              =    -452.98559064 Ry
     estimated scf accuracy    <       0.28165030 Ry

     iteration # 10     ecut=    40.00 Ry     beta= 0.70
     Davidson diagonalization with overlap
     ethr =  1.13E-03,  avg # of iterations =  1.5

     negative rho (up, down):  4.501E-04 0.000E+00

     total cpu time spent up to now is      202.3 secs

     total energy              =    -452.98263800 Ry
     estimated scf accuracy    <       0.39897607 Ry

     iteration # 11     ecut=    40.00 Ry     beta= 0.70
     Davidson diagonalization with overlap
     ethr =  1.13E-03,  avg # of iterations =  1.2

     negative rho (up, down):  4.698E-04 0.000E+00

     total cpu time spent up to now is      218.0 secs

     total energy              =    -452.95903151 Ry
     estimated scf accuracy    <       0.38242981 Ry

     iteration # 12     ecut=    40.00 Ry     beta= 0.70
     Davidson diagonalization with overlap
     ethr =  1.13E-03,  avg # of iterations =  1.0

     negative rho (up, down):  4.697E-04 0.000E+00

     total cpu time spent up to now is      233.6 secs

     total energy              =    -452.97307563 Ry
     estimated scf accuracy    <       0.14797027 Ry

     iteration # 13     ecut=    40.00 Ry     beta= 0.70
     Davidson diagonalization with overlap
     ethr =  5.92E-04,  avg # of iterations =  1.0

     negative rho (up, down):  4.670E-04 0.000E+00

     total cpu time spent up to now is      249.4 secs

     total energy              =    -452.97184594 Ry
     estimated scf accuracy    <       0.06680521 Ry

     iteration # 14     ecut=    40.00 Ry     beta= 0.70
     Davidson diagonalization with overlap
     ethr =  2.67E-04,  avg # of iterations =  2.9

     negative rho (up, down):  4.675E-04 0.000E+00

     total cpu time spent up to now is      266.0 secs

     total energy              =    -452.97235049 Ry
     estimated scf accuracy    <       0.00744917 Ry

     iteration # 15     ecut=    40.00 Ry     beta= 0.70
     Davidson diagonalization with overlap
     ethr =  2.98E-05,  avg # of iterations =  6.1

     negative rho (up, down):  4.683E-04 0.000E+00

     total cpu time spent up to now is      284.6 secs

     total energy              =    -452.97232947 Ry
     estimated scf accuracy    <       0.01268659 Ry

     iteration # 16     ecut=    40.00 Ry     beta= 0.70
     Davidson diagonalization with overlap
     ethr =  2.98E-05,  avg # of iterations =  1.0

     negative rho (up, down):  4.681E-04 0.000E+00

     total cpu time spent up to now is      300.3 secs

     total energy              =    -452.97211609 Ry
     estimated scf accuracy    <       0.01409930 Ry

     iteration # 17     ecut=    40.00 Ry     beta= 0.70
     Davidson diagonalization with overlap
     ethr =  2.98E-05,  avg # of iterations =  1.0

     negative rho (up, down):  4.681E-04 0.000E+00

     total cpu time spent up to now is      315.9 secs

     total energy              =    -452.97203605 Ry
     estimated scf accuracy    <       0.00330411 Ry

     iteration # 18     ecut=    40.00 Ry     beta= 0.70
     Davidson diagonalization with overlap
     ethr =  1.32E-05,  avg # of iterations =  1.6

     negative rho (up, down):  4.683E-04 0.000E+00

     total cpu time spent up to now is      332.0 secs

     total energy              =    -452.97211290 Ry
     estimated scf accuracy    <       0.00026505 Ry

     iteration # 19     ecut=    40.00 Ry     beta= 0.70
     Davidson diagonalization with overlap
     ethr =  1.06E-06,  avg # of iterations =  3.8

     negative rho (up, down):  4.683E-04 0.000E+00

     total cpu time spent up to now is      349.2 secs

     total energy              =    -452.97211191 Ry
     estimated scf accuracy    <       0.00010373 Ry

     iteration # 20     ecut=    40.00 Ry     beta= 0.70
     Davidson diagonalization with overlap
     ethr =  4.15E-07,  avg # of iterations =  1.0

     negative rho (up, down):  4.684E-04 0.000E+00

     total cpu time spent up to now is      364.8 secs

     total energy              =    -452.97211176 Ry
     estimated scf accuracy    <       0.00002070 Ry

     iteration # 21     ecut=    40.00 Ry     beta= 0.70
     Davidson diagonalization with overlap
     ethr =  8.28E-08,  avg # of iterations =  1.0

     negative rho (up, down):  4.684E-04 0.000E+00

     total cpu time spent up to now is      380.2 secs

     End of self-consistent calculation

          k = 0.0000 0.0000 0.0000 ( 11841 PWs)   bands (ev):

   -60.2218 -36.5497 -35.9937 -35.9937 -16.1448 -16.1447  -8.0566  -5.9273
    -5.9140  -4.8470  -4.3781  -4.3781  -3.4543  -3.4543  -3.4541  -3.4541
    -3.2793  -3.2793  -3.0569   1.4022   1.8380   2.3443   2.5752   2.5760
     3.1049

     occupation numbers 
     1.0000   1.0000   1.0000   1.0000   1.0000   1.0000   1.0000   1.0000
     1.0000   0.9447  -0.0306  -0.0306  -0.0000  -0.0000  -0.0000  -0.0000
    -0.0000  -0.0000  -0.0000  -0.0000  -0.0000  -0.0000  -0.0000  -0.0000
    -0.0000

          k = 0.0000 0.0888 0.0000 ( 11775 PWs)   bands (ev):

   -60.2206 -36.5481 -36.0065 -35.9968 -16.0982 -16.0981  -7.9172  -5.8721
    -5.8630  -4.8092  -4.4635  -4.2786  -3.7731  -3.7312  -3.7103  -3.5085
    -3.5083  -3.3044  -2.5391   1.5185   1.9651   2.4418   2.6583   2.6837
     3.1896

     occupation numbers 
     1.0000   1.0000   1.0000   1.0000   1.0000   1.0000   1.0000   1.0000
     1.0000   0.8807   0.0237  -0.0306  -0.0000  -0.0000  -0.0000  -0.0000
    -0.0000  -0.0000  -0.0000  -0.0000  -0.0000  -0.0000  -0.0000  -0.0000
    -0.0000

          k = 0.0000 0.1776 0.0000 ( 11737 PWs)   bands (ev):

   -60.2173 -36.5438 -36.0420 -36.0054 -15.9646 -15.9646  -7.5198  -5.7178
    -5.7146  -4.7243  -4.6525  -4.4362  -4.4089  -4.2408  -3.9899  -3.6528
    -3.6524  -3.3730  -1.8892   1.8204   2.3005   2.7204   2.8966   2.9991
     3.4438

     occupation numbers 
     1.0000   1.0000   1.0000   1.0000   1.0000   1.0000   1.0000   1.0000
     1.0000   0.6717   0.4527  -0.0020  -0.0193  -0.0245  -0.0012  -0.0000
    -0.0000  -0.0000  -0.0000  -0.0000  -0.0000  -0.0000  -0.0000  -0.0000
    -0.0000

          k = 0.0000 0.2665 0.0000 ( 11727 PWs)   bands (ev):

   -60.2126 -36.5377 -36.0916 -36.0176 -15.7635 -15.7635  -6.9517  -5.5112
    -5.4899  -5.2696  -5.2689  -4.8346  -4.6694  -4.5188  -3.8433  -3.8430
    -3.5432  -3.4674  -1.2037   2.2436   2.7802   3.0817   3.3272   3.5072
     3.8771

     occupation numbers 
     1.0000   1.0000   1.0000   1.0000   1.0000   1.0000   1.0000   1.0001
     1.0001   1.0038   1.0038   0.9258   0.5052   0.1050  -0.0001  -0.0001
    -0.0000  -0.0000  -0.0000  -0.0000  -0.0000  -0.0000  -0.0000  -0.0000
    -0.0000

          k = 0.0000 0.3553 0.0000 ( 11695 PWs)   bands (ev):

   -60.2076 -36.5312 -36.1438 -36.0305 -15.5302 -15.5302  -6.4734  -6.0844
    -6.0803  -5.3115  -5.2342  -4.9392  -4.6333  -4.3388  -4.0315  -4.0311
    -3.5647  -3.0017  -0.4958   2.7064   3.2885   3.2907   3.8154   4.0177
     4.1641

     occupation numbers 
     1.0000   1.0000   1.0000   1.0000   1.0000   1.0000   1.0000   1.0000
     1.0000   1.0021   1.0061   1.0249   0.3938  -0.0354  -0.0023  -0.0023
    -0.0000  -0.0000  -0.0000  -0.0000  -0.0000  -0.0000  -0.0000  -0.0000
    -0.0000

          k = 0.0000 0.4441 0.0000 ( 11640 PWs)   bands (ev):

   -60.2035 -36.5258 -36.1867 -36.0411 -15.3176 -15.3176  -6.7166  -6.7138
    -6.3369  -5.3639  -4.9736  -4.8808  -4.2012  -4.1782  -4.1777  -3.8722
    -3.6433  -2.4764   0.1865   1.9426   3.0524   3.3948   3.6168   3.9110
     4.3476

     occupation numbers 
     1.0000   1.0000   1.0000   1.0000   1.0000   1.0000   1.0000   1.0000
     1.0000   1.0009   1.0337   0.9855  -0.0179  -0.0145  -0.0144  -0.0001
    -0.0000  -0.0000  -0.0000  -0.0000  -0.0000  -0.0000  -0.0000  -0.0000
    -0.0000

          k = 0.0000 0.5329 0.0000 ( 11604 PWs)   bands (ev):

   -60.2012 -36.5228 -36.2108 -36.0471 -15.1881 -15.1881  -7.0626  -7.0614
    -6.3598  -5.4586  -4.8009  -4.7571  -4.2577  -4.2572  -4.1083  -3.6868
    -3.0170  -2.1349   0.6817   0.6839   3.0810   3.1325   3.5616   3.7189
     4.4908

     occupation numbers 
     1.0000   1.0000   1.0000   1.0000   1.0000   1.0000   1.0000   1.0000
     1.0000   1.0002   0.8643   0.7619  -0.0273  -0.0273  -0.0066  -0.0000
    -0.0000  -0.0000  -0.0000  -0.0000  -0.0000  -0.0000  -0.0000  -0.0000
    -0.0000

          k = 0.0769 0.1332 0.0000 ( 11759 PWs)   bands (ev):

   -60.2183 -36.5452 -36.0301 -36.0033 -16.0081 -16.0080  -7.6473  -5.7654
    -5.7647  -4.7392  -4.6179  -4.2188  -4.1909  -4.1006  -4.0751  -3.6265
    -3.6263  -3.3591  -2.0636   1.7267   2.1953   2.6307   2.8178   2.8955
     3.3584

     occupation numbers 
     1.0000   1.0000   1.0000   1.0000   1.0000   1.0000   1.0000   1.0000
     1.0000   0.7140   0.3477  -0.0208  -0.0163  -0.0060  -0.0043  -0.0000
    -0.0000  -0.0000  -0.0000  -0.0000  -0.0000  -0.0000  -0.0000  -0.0000
    -0.0000

          k = 0.0769 0.2221 0.0000 ( 11740 PWs)   bands (ev):

   -60.2143 -36.5400 -36.0712 -36.0151 -15.8403 -15.8403  -7.1482  -5.5858
    -5.5684  -4.9355  -4.9286  -4.8402  -4.5818  -4.5167  -3.8381  -3.8381
    -3.6804  -3.4604  -1.4362   2.0900   2.6034   2.9586   3.1463   3.3078
     3.7047

     occupation numbers 
     1.0000   1.0000   1.0000   1.0000   1.0000   1.0000   1.0000   1.0000
     1.0000   1.0234   1.0203   0.9346   0.2469   0.1011  -0.0001  -0.0001
    -0.0000  -0.0000  -0.0000  -0.0000  -0.0000  -0.0000  -0.0000  -0.0000
    -0.0000

          k = 0.0769 0.3109 0.0000 ( 11712 PWs)   bands (ev):

   -60.2095 -36.5337 -36.1203 -36.0294 -15.6219 -15.6219  -6.5637  -5.7207
    -5.7174  -5.3635  -5.3228  -4.9123  -4.8398  -4.4189  -4.0749  -4.0744
    -3.5811  -3.1405  -0.7464   2.5494   3.1229   3.2747   3.7125   3.9073
     4.2227

     occupation numbers 
     1.0000   1.0000   1.0000   1.0000   1.0000   1.0000   1.0000   1.0000
     1.0000   1.0009   1.0017   1.0112   0.9339  -0.0138  -0.0043  -0.0043
    -0.0000  -0.0000  -0.0000  -0.0000  -0.0000  -0.0000  -0.0000  -0.0000
    -0.0000

          k = 0.0769 0.3997 0.0000 ( 11658 PWs)   bands (ev):

   -60.2050 -36.5277 -36.1661 -36.0429 -15.3964 -15.3964  -6.4173  -6.4097
    -6.2344  -5.2894  -5.0799  -4.9260  -4.4896  -4.2846  -4.2807  -4.2454
    -3.6926  -2.5273  -0.0361   2.7079   3.0387   3.5136   3.6515   4.2583
     4.5004

     occupation numbers 
     1.0000   1.0000   1.0000   1.0000   1.0000   1.0000   1.0000   1.0000
     1.0000   1.0029   1.0270   1.0190   0.0570  -0.0315  -0.0309  -0.0253
    -0.0000  -0.0000  -0.0000  -0.0000  -0.0000  -0.0000  -0.0000  -0.0000
    -0.0000

          k = 0.0769 0.4885 0.0000 ( 11625 PWs)   bands (ev):

   -60.2017 -36.5235 -36.1984 -36.0525 -15.2222 -15.2221  -6.8871  -6.8856
    -6.2315  -5.3884  -4.8505  -4.7905  -4.4185  -4.4179  -4.1308  -3.7704
    -3.7080  -1.9397   0.5998   1.2163   3.1544   3.3624   3.8066   4.0247
     4.6197

     occupation numbers 
     1.0000   1.0000   1.0000   1.0000   1.0000   1.0000   1.0000   1.0000
     1.0000   1.0006   0.9495   0.8422  -0.0141  -0.0144  -0.0087  -0.0000
    -0.0000  -0.0000  -0.0000  -0.0000  -0.0000  -0.0000  -0.0000  -0.0000
    -0.0000

          k = 0.0769 0.5774 0.0000 ( 11592 PWs)   bands (ev):

   -60.2006 -36.5220 -36.2100 -36.0559 -15.1558 -15.1558  -7.0570  -7.0559
    -6.2557  -5.4341  -4.7610  -4.7233  -4.4662  -4.4659  -4.0863  -3.7982
    -3.2762  -1.5954   0.4306   0.8970   3.1464   3.1775   3.8115   3.9243
     4.5386

     occupation numbers 
     1.0000   1.0000   1.0000   1.0000   1.0000   1.0000   1.0000   1.0000
     1.0000   1.0003   0.7719   0.6690   0.0267   0.0263  -0.0050  -0.0000
    -0.0000  -0.0000  -0.0000  -0.0000  -0.0000  -0.0000  -0.0000  -0.0000
    -0.0000

          k = 0.1538 0.2665 0.0000 ( 11745 PWs)   bands (ev):

   -60.2102 -36.5346 -36.1091 -36.0318 -15.6544 -15.6544  -6.5794  -5.5392
    -5.5315  -5.3815  -5.3356  -5.0667  -4.7754  -4.4489  -4.1697  -4.1693
    -3.6200  -3.1541  -0.8203   2.4968   3.0607   3.2472   3.6165   3.8134
     4.1512

     occupation numbers 
     1.0000   1.0000   1.0000   1.0000   1.0000   1.0000   1.0000   1.0000
     1.0000   1.0007   1.0014   1.0291   0.8076   0.0088  -0.0133  -0.0132
    -0.0000  -0.0000  -0.0000  -0.0000  -0.0000  -0.0000  -0.0000  -0.0000
    -0.0000

          k = 0.1538 0.3553 0.0000 ( 11676 PWs)   bands (ev):

   -60.2058 -36.5288 -36.1476 -36.0509 -15.4407 -15.4407  -6.1338  -6.1177
    -5.9842  -5.2435  -5.1745  -5.0271  -4.9039  -4.5227  -4.5212  -4.2870
    -3.8042  -2.4769  -0.1174   2.9394   3.4612   3.5498   3.7530   4.3117
     4.4788

     occupation numbers 
     1.0000   1.0000   1.0000   1.0000   1.0000   1.0000   1.0000   1.0000
     1.0000   1.0054   1.0122   1.0342   1.0055   0.1122   0.1095  -0.0318
    -0.0000  -0.0000  -0.0000  -0.0000  -0.0000  -0.0000  -0.0000  -0.0000
    -0.0000

          k = 0.1538 0.4441 0.0000 ( 11627 PWs)   bands (ev):

   -60.2021 -36.5240 -36.1788 -36.0673 -15.2482 -15.2482  -6.5992  -6.5976
    -5.8758  -5.2686  -4.9067  -4.8090  -4.7937  -4.7918  -4.5307  -4.1482
    -3.9626  -1.7265   0.6009   1.9274   3.2592   3.7007   4.0084   4.5371
     4.6183

     occupation numbers 
     1.0000   1.0000   1.0000   1.0000   1.0000   1.0000   1.0000   1.0000
     1.0000   1.0039   1.0074   0.8803   0.8489   0.8450   0.1280  -0.0106
    -0.0008  -0.0000  -0.0000  -0.0000  -0.0000  -0.0000  -0.0000  -0.0000
    -0.0000

          k = 0.1538 0.5329 0.0000 ( 11623 PWs)   bands (ev):

   -60.2001 -36.5213 -36.1962 -36.0766 -15.1321 -15.1321  -6.8709  -6.8700
    -5.9335  -5.3174  -4.9398  -4.9375  -4.7383  -4.6986  -4.0735  -4.0534
    -3.9546  -0.9940   0.6053   1.1602   3.3260   3.4599   4.0858   4.3900
     4.4188

     occupation numbers 
     1.0000   1.0000   1.0000   1.0000   1.0000   1.0000   1.0000   1.0000
     1.0000   1.0019   1.0251   1.0242   0.7116   0.5953  -0.0042  -0.0032
    -0.0007  -0.0000  -0.0000  -0.0000  -0.0000  -0.0000  -0.0000  -0.0000
    -0.0000

          k = 0.2308 0.3997 0.0000 ( 11615 PWs)   bands (ev):

   -60.2023 -36.5242 -36.1675 -36.0768 -15.2580 -15.2580  -6.4217  -6.4200
    -5.3393  -5.3033  -5.2041  -5.0206  -5.0192  -4.8556  -4.8055  -4.1553
    -4.0717  -1.6552   0.6110   2.4232   3.2647   3.8384   3.8674   4.2246
     4.8957

     occupation numbers 
     1.0000   1.0000   1.0000   1.0000   1.0000   1.0000   1.0000   1.0000
     1.0013   1.0023   1.0088   1.0347   1.0348   0.9565   0.8734  -0.0114
    -0.0041  -0.0000  -0.0000  -0.0000  -0.0000  -0.0000  -0.0000  -0.0000
    -0.0000

          k = 0.2308 0.4885 0.0000 ( 11616 PWs)   bands (ev):

   -60.1998 -36.5210 -36.1777 -36.0991 -15.1200 -15.1200  -6.6029  -6.6020
    -5.4455  -5.4031  -5.4007  -5.1693  -4.7825  -4.6842  -4.6091  -4.2985
    -4.0614  -0.7765   1.1812   1.3319   3.0114   3.6522   3.9065   4.6526
     4.7165

     occupation numbers 
     1.0000   1.0000   1.0000   1.0000   1.0000   1.0000   1.0000   1.0000
     1.0002   1.0004   1.0005   1.0128   0.8240   0.5510   0.3223  -0.0332
    -0.0036  -0.0000  -0.0000  -0.0000  -0.0000  -0.0000  -0.0000  -0.0000
    -0.0000

          k = 0.2308 0.5774 0.0000 ( 11642 PWs)   bands (ev):

   -60.1989 -36.5198 -36.1803 -36.1083 -15.0683 -15.0683  -6.6620  -6.6613
    -5.5455  -5.5450  -5.4918  -5.1459  -4.6709  -4.6409  -4.3884  -4.3704
    -4.0328   0.0518   0.2056   1.7160   2.7267   3.6599   3.7544   4.7383
     4.9183

     occupation numbers 
     1.0000   1.0000   1.0000   1.0000   1.0000   1.0000   1.0000   1.0000
     1.0000   1.0000   1.0001   1.0161   0.5097   0.4170  -0.0277  -0.0323
    -0.0024  -0.0000  -0.0000  -0.0000  -0.0000  -0.0000  -0.0000  -0.0000
    -0.0000

          k = 0.3077 0.5329 0.0000 ( 11632 PWs)   bands (ev):

   -60.1985 -36.5192 -36.1634 -36.1308 -15.0453 -15.0453  -6.4197  -6.4191
    -5.9343  -5.9340  -5.0992  -4.9898  -4.8020  -4.6819  -4.5970  -4.5467
    -4.0205   0.0313   0.8567   1.8869   1.9760   3.8624   4.0448   4.5178
     4.8093

     occupation numbers 
     1.0000   1.0000   1.0000   1.0000   1.0000   1.0000   1.0000   1.0000
     1.0000   1.0000   1.0237   1.0352   0.8664   0.5440   0.2881   0.1618
    -0.0020  -0.0000  -0.0000  -0.0000  -0.0000  -0.0000  -0.0000  -0.0000
    -0.0000

     the Fermi energy is    -4.6677 ev

!    total energy              =    -452.97211204 Ry

     total all-electron energy =     -9223.176623 Ry
     estimated scf accuracy    <          9.4E-09 Ry
     smearing contrib. (-TS)   =      -0.00129162 Ry
     internal energy E=F+TS    =    -452.97082042 Ry

     The total energy is F=E-TS. E is the sum of the following terms:
     one-electron contribution =   -1481.46116064 Ry
     hartree contribution      =     740.15770543 Ry
     xc contribution           =     -31.35840458 Ry
     ewald contribution        =     613.75036080 Ry
     one-center paw contrib.   =    -294.05932143 Ry
      -> PAW hartree energy AE =      81.92943707 Ry
      -> PAW hartree energy PS =     -81.44406118 Ry
      -> PAW xc energy AE      =    -275.72628132 Ry
      -> PAW xc energy PS      =      22.85312061 Ry
      -> total E_H with PAW    =     740.64308132 Ry
      -> total E_XC with PAW   =    -284.23156529 Ry

     convergence has been achieved in  21 iterations

     Writing output data file ./tmp/NbS2.save/

     init_run     :      7.36s CPU      7.72s WALL (       1 calls)
     electrons    :    357.33s CPU    371.56s WALL (       1 calls)

     Called by init_run:
     wfcinit      :      4.72s CPU      4.77s WALL (       1 calls)
     wfcinit:atom :      0.05s CPU      0.05s WALL (      21 calls)
     wfcinit:wfcr :      4.57s CPU      4.61s WALL (      21 calls)
     potinit      :      0.66s CPU      0.68s WALL (       1 calls)
     hinit0       :      0.97s CPU      1.00s WALL (       1 calls)

     Called by electrons:
     c_bands      :    252.61s CPU    255.37s WALL (      21 calls)
     sum_band     :     79.38s CPU     85.74s WALL (      21 calls)
     v_of_rho     :      1.85s CPU      1.89s WALL (      22 calls)
     v_h          :      1.03s CPU      1.05s WALL (      22 calls)
     v_xc         :      0.82s CPU      0.84s WALL (      22 calls)
     newd         :     19.84s CPU     24.83s WALL (      22 calls)
     PAW_pot      :      1.16s CPU      1.16s WALL (      22 calls)
     mix_rho      :      2.21s CPU      2.26s WALL (      21 calls)

     Called by c_bands:
     init_us_2    :      2.10s CPU      2.16s WALL (     903 calls)
     cegterg      :    248.33s CPU    250.94s WALL (     441 calls)

     Called by sum_band:
     sum_band:wei :      0.02s CPU      0.02s WALL (      21 calls)
     sum_band:loo :     47.68s CPU     48.13s WALL (      21 calls)
     sum_band:buf :      0.50s CPU      0.51s WALL (     441 calls)
     sum_band:ini :      1.02s CPU      1.03s WALL (     441 calls)
     sum_band:cal :      5.12s CPU      5.14s WALL (     441 calls)
     sum_band:bec :      0.01s CPU      0.01s WALL (     441 calls)
     addusdens    :     29.44s CPU     35.27s WALL (      21 calls)
     addusd:skk   :      0.05s CPU      0.08s WALL (      42 calls)
     addusd:dgemm :      7.81s CPU     12.37s WALL (      42 calls)
     addusd:qvan2 :     20.18s CPU     20.18s WALL (      42 calls)

     Called by *egterg:
     cdiaghg      :      1.26s CPU      1.27s WALL (    1601 calls)
     cegterg:over :     15.97s CPU     15.99s WALL (    1160 calls)
     cegterg:upda :      9.00s CPU      9.02s WALL (    1160 calls)
     cegterg:last :     19.60s CPU     19.61s WALL (     671 calls)
     h_psi        :    185.82s CPU    188.36s WALL (    1622 calls)
     s_psi        :     11.52s CPU     11.56s WALL (    1622 calls)
     g_psi        :      0.42s CPU      0.42s WALL (    1160 calls)

     Called by h_psi:
     h_psi:calbec :     12.23s CPU     12.31s WALL (    1622 calls)
     vloc_psi     :    161.89s CPU    164.32s WALL (    1622 calls)
     add_vuspsi   :     10.56s CPU     10.58s WALL (    1622 calls)

     General routines
     calbec       :     17.33s CPU     17.44s WALL (    2063 calls)
     fft          :      4.69s CPU      4.81s WALL (     130 calls)
     ffts         :      0.25s CPU      0.26s WALL (      43 calls)
     fftw         :    168.80s CPU    171.15s WALL (   62451 calls)
     interpolate  :      1.00s CPU      1.02s WALL (      22 calls)

     Parallel routines
     fft_scatt_xy :     27.00s CPU     27.35s WALL (   62624 calls)
     fft_scatt_yz :     15.91s CPU     16.24s WALL (   62624 calls)

     PAW routines
     PAW_pot      :      1.16s CPU      1.16s WALL (      22 calls)
     PAW_symme    :      0.01s CPU      0.01s WALL (      43 calls)

     PWSCF        :   6m 5.84s CPU   6m21.25s WALL


   This run was terminated on:  16:42:36  10Jun2021            

=------------------------------------------------------------------------------=
   JOB DONE.
=------------------------------------------------------------------------------=
