
     Program PWSCF v.6.6 starts on 10Jun2021 at 16:23:52 

     This program is part of the open-source Quantum ESPRESSO suite
     for quantum simulation of materials; please cite
         "P. Giannozzi et al., J. Phys.:Condens. Matter 21 395502 (2009);
         "P. Giannozzi et al., J. Phys.:Condens. Matter 29 465901 (2017);
          URL http://www.quantum-espresso.org", 
     in publications or presentations arising from this work. More details at
     http://www.quantum-espresso.org/quote

     Parallel version (MPI), running on     2 processors

     MPI processes distributed on     1 nodes
     R & G space division:  proc/nbgrp/npool/nimage =       2
     Fft bands division:     nmany     =       1
     Waiting for input...
     Reading input from standard input

     Current dimensions of program PWSCF are:
     Max number of different atomic species (ntypx) = 10
     Max number of k-points (npk) =  40000
     Max angular momentum in pseudopotentials (lmaxx) =  3
     file Nb.pz-spn-kjpaw_psl.1.0.0.UPF: wavefunction(s)  4S 4P 4D renormalized
     file S.pz-n-kjpaw_psl.0.1.UPF: wavefunction(s)  3P renormalized

     Subspace diagonalization in iterative solution of the eigenvalue problem:
     a serial algorithm will be used


     Parallelization info
     --------------------
     sticks:   dense  smooth     PW     G-vecs:    dense   smooth      PW
     Min         579     225     69               184729    46499    7715
     Max         580     226     70               184746    46524    7734
     Sum        1159     451    139               369475    93023   15449



     bravais-lattice index     =            4
     lattice parameter (alat)  =       6.4591  a.u.
     unit-cell volume          =    2731.0606 (a.u.)^3
     number of atoms/cell      =            3
     number of atomic types    =            2
     number of electrons       =        25.00
     number of Kohn-Sham states=           25
     kinetic-energy cutoff     =      40.0000  Ry
     charge density cutoff     =     400.0000  Ry
     convergence threshold     =      1.0E-08
     mixing beta               =       0.7000
     number of iterations used =            8  plain     mixing
     Exchange-correlation= SLA PZ NOGX NOGC
                           (   1   1   0   0   0   0   0)

     celldm(1)=   6.459084  celldm(2)=   0.000000  celldm(3)=  11.702750
     celldm(4)=   0.000000  celldm(5)=   0.000000  celldm(6)=   0.000000

     crystal axes: (cart. coord. in units of alat)
               a(1) = (   1.000000   0.000000   0.000000 )  
               a(2) = (  -0.500000   0.866025   0.000000 )  
               a(3) = (   0.000000   0.000000  11.702750 )  

     reciprocal axes: (cart. coord. in units 2 pi/alat)
               b(1) = (  1.000000  0.577350 -0.000000 )  
               b(2) = (  0.000000  1.154701  0.000000 )  
               b(3) = (  0.000000 -0.000000  0.085450 )  


     PseudoPot. # 1 for Nb read from file:
     ../Nb.pz-spn-kjpaw_psl.1.0.0.UPF
     MD5 check sum: 38c2e04b3cc915696ca8dc9f46a23270
     Pseudo is Projector augmented-wave + core cor, Zval = 13.0
     Generated using "atomic" code by A. Dal Corso v.6.2.2
     Shape of augmentation charge: PSQ
     Using radial grid of 1227 points,  6 beta functions with: 
                l(1) =   0
                l(2) =   0
                l(3) =   1
                l(4) =   1
                l(5) =   2
                l(6) =   2
     Q(r) pseudized with 0 coefficients 


     PseudoPot. # 2 for S  read from file:
     ../S.pz-n-kjpaw_psl.0.1.UPF
     MD5 check sum: c0b1682311cf098e03f7841691d9a679
     Pseudo is Projector augmented-wave + core cor, Zval =  6.0
     Generated using "atomic" code by A. Dal Corso v.5.0.2 svn rev. 9415
     Shape of augmentation charge: PSQ
     Using radial grid of 1151 points,  4 beta functions with: 
                l(1) =   0
                l(2) =   0
                l(3) =   1
                l(4) =   1
     Q(r) pseudized with 0 coefficients 


     atomic species   valence    mass     pseudopotential
        Nb            13.00    92.90600     Nb( 1.00)
        S              6.00    32.06500     S ( 1.00)

     12 Sym. Ops. (no inversion) found ( 6 have fractional translation)


                                    s                        frac. trans.

      isym =  1     identity                                     

 cryst.   s( 1) = (     1          0          0      )
                  (     0          1          0      )
                  (     0          0          1      )

 cart.    s( 1) = (  1.0000000  0.0000000  0.0000000 )
                  (  0.0000000  1.0000000  0.0000000 )
                  (  0.0000000  0.0000000  1.0000000 )


      isym =  2     180 deg rotation - cart. axis [0,1,0]        

 cryst.   s( 2) = (    -1          0          0      )    f =(  0.0000000 )
                  (     1          1          0      )       (  0.0000000 )
                  (     0          0         -1      )       (  0.5000000 )

 cart.    s( 2) = ( -1.0000000  0.0000000  0.0000000 )    f =(  0.0000000 )
                  (  0.0000000  1.0000000  0.0000000 )       (  0.0000000 )
                  (  0.0000000  0.0000000 -1.0000000 )       (  5.8513751 )


      isym =  3     120 deg rotation - cryst. axis [0,0,1]       

 cryst.   s( 3) = (     0          1          0      )
                  (    -1         -1          0      )
                  (     0          0          1      )

 cart.    s( 3) = ( -0.5000000 -0.8660254  0.0000000 )
                  (  0.8660254 -0.5000000  0.0000000 )
                  (  0.0000000  0.0000000  1.0000000 )


      isym =  4     120 deg rotation - cryst. axis [0,0,-1]      

 cryst.   s( 4) = (    -1         -1          0      )
                  (     1          0          0      )
                  (     0          0          1      )

 cart.    s( 4) = ( -0.5000000  0.8660254  0.0000000 )
                  ( -0.8660254 -0.5000000  0.0000000 )
                  (  0.0000000  0.0000000  1.0000000 )


      isym =  5     180 deg rotation - cryst. axis [1,-1,0]      

 cryst.   s( 5) = (     0         -1          0      )    f =(  0.0000000 )
                  (    -1          0          0      )       (  0.0000000 )
                  (     0          0         -1      )       (  0.5000000 )

 cart.    s( 5) = (  0.5000000 -0.8660254  0.0000000 )    f =(  0.0000000 )
                  ( -0.8660254 -0.5000000  0.0000000 )       (  0.0000000 )
                  (  0.0000000  0.0000000 -1.0000000 )       (  5.8513751 )


      isym =  6     180 deg rotation - cryst. axis [2,1,0]       

 cryst.   s( 6) = (     1          1          0      )    f =(  0.0000000 )
                  (     0         -1          0      )       (  0.0000000 )
                  (     0          0         -1      )       (  0.5000000 )

 cart.    s( 6) = (  0.5000000  0.8660254  0.0000000 )    f =( -0.0000000 )
                  (  0.8660254 -0.5000000  0.0000000 )       (  0.0000000 )
                  (  0.0000000  0.0000000 -1.0000000 )       (  5.8513751 )


      isym =  7     inv. 180 deg rotation - cart. axis [0,0,1]   

 cryst.   s( 7) = (     1          0          0      )    f =(  0.0000000 )
                  (     0          1          0      )       (  0.0000000 )
                  (     0          0         -1      )       (  0.5000000 )

 cart.    s( 7) = (  1.0000000  0.0000000  0.0000000 )    f =(  0.0000000 )
                  (  0.0000000  1.0000000  0.0000000 )       (  0.0000000 )
                  (  0.0000000  0.0000000 -1.0000000 )       (  5.8513751 )


      isym =  8     inv. 180 deg rotation - cart. axis [1,0,0]   

 cryst.   s( 8) = (    -1          0          0      )
                  (     1          1          0      )
                  (     0          0          1      )

 cart.    s( 8) = ( -1.0000000  0.0000000  0.0000000 )
                  (  0.0000000  1.0000000  0.0000000 )
                  (  0.0000000  0.0000000  1.0000000 )


      isym =  9     inv.  60 deg rotation - cryst. axis [0,0,1]  

 cryst.   s( 9) = (    -1         -1          0      )    f =(  0.0000000 )
                  (     1          0          0      )       (  0.0000000 )
                  (     0          0         -1      )       (  0.5000000 )

 cart.    s( 9) = ( -0.5000000  0.8660254  0.0000000 )    f =( -0.0000000 )
                  ( -0.8660254 -0.5000000  0.0000000 )       (  0.0000000 )
                  (  0.0000000  0.0000000 -1.0000000 )       (  5.8513751 )


      isym = 10     inv.  60 deg rotation - cryst. axis [0,0,-1] 

 cryst.   s(10) = (     0          1          0      )    f =(  0.0000000 )
                  (    -1         -1          0      )       (  0.0000000 )
                  (     0          0         -1      )       (  0.5000000 )

 cart.    s(10) = ( -0.5000000 -0.8660254  0.0000000 )    f =(  0.0000000 )
                  (  0.8660254 -0.5000000  0.0000000 )       (  0.0000000 )
                  (  0.0000000  0.0000000 -1.0000000 )       (  5.8513751 )


      isym = 11     inv. 180 deg rotation - cryst. axis [0,1,0]  

 cryst.   s(11) = (     1          1          0      )
                  (     0         -1          0      )
                  (     0          0          1      )

 cart.    s(11) = (  0.5000000  0.8660254  0.0000000 )
                  (  0.8660254 -0.5000000  0.0000000 )
                  (  0.0000000  0.0000000  1.0000000 )


      isym = 12     inv. 180 deg rotation - cryst. axis [1,1,0]  

 cryst.   s(12) = (     0         -1          0      )
                  (    -1          0          0      )
                  (     0          0          1      )

 cart.    s(12) = (  0.5000000 -0.8660254  0.0000000 )
                  ( -0.8660254 -0.5000000  0.0000000 )
                  (  0.0000000  0.0000000  1.0000000 )


     point group D_3h (-62m)
     there are  6 classes
     the character table:

       E     2C3   3C2   s_h   2S3   3s_v 
A'_1   1.00  1.00  1.00  1.00  1.00  1.00
A'_2   1.00  1.00 -1.00  1.00  1.00 -1.00
E'     2.00 -1.00  0.00  2.00 -1.00  0.00
A''1   1.00  1.00  1.00 -1.00 -1.00 -1.00
A''2   1.00  1.00 -1.00 -1.00 -1.00  1.00
E''    2.00 -1.00  0.00 -2.00  1.00  0.00

     the symmetry operations in each class and the name of the first element:

     E        1
          identity                                               
     2C3      3    4
          120 deg rotation - cryst. axis [0,0,1]                 
     3C2      2    6    5
          180 deg rotation - cart. axis [0,1,0]                  
     s_h      7
          inv. 180 deg rotation - cart. axis [0,0,1]             
     2S3      9   10
          inv.  60 deg rotation - cryst. axis [0,0,1]            
     3s_v     8   11   12
          inv. 180 deg rotation - cart. axis [1,0,0]             

   Cartesian axes

     site n.     atom                  positions (alat units)
         1           S   tau(   1) = (   0.0000000   0.5773503   4.3089526  )
         2           Nb  tau(   2) = (   0.0000000   0.0000000   2.9256875  )
         3           S   tau(   3) = (   0.0000000   0.5773503   1.5424225  )

   Crystallographic axes

     site n.     atom                  positions (cryst. coord.)
         1           S   tau(   1) = (  0.3333333  0.6666667  0.3682000  )
         2           Nb  tau(   2) = (  0.0000000  0.0000000  0.2500000  )
         3           S   tau(   3) = (  0.3333333  0.6666667  0.1318000  )

     number of k points=    16  Methfessel-Paxton smearing, width (Ry)=  0.0200
                       cart. coord. in units 2pi/alat
        k(    1) = (   0.0000000   0.0000000   0.0000000), wk =   0.0165289
        k(    2) = (   0.0000000   0.1049728   0.0000000), wk =   0.0991736
        k(    3) = (   0.0000000   0.2099456   0.0000000), wk =   0.0991736
        k(    4) = (   0.0000000   0.3149183   0.0000000), wk =   0.0991736
        k(    5) = (   0.0000000   0.4198911   0.0000000), wk =   0.0991736
        k(    6) = (   0.0000000   0.5248639   0.0000000), wk =   0.0991736
        k(    7) = (   0.0909091   0.1574592   0.0000000), wk =   0.0991736
        k(    8) = (   0.0909091   0.2624319   0.0000000), wk =   0.1983471
        k(    9) = (   0.0909091   0.3674047   0.0000000), wk =   0.1983471
        k(   10) = (   0.0909091   0.4723775   0.0000000), wk =   0.1983471
        k(   11) = (   0.0909091   0.5773503   0.0000000), wk =   0.0991736
        k(   12) = (   0.1818182   0.3149183   0.0000000), wk =   0.0991736
        k(   13) = (   0.1818182   0.4198911   0.0000000), wk =   0.1983471
        k(   14) = (   0.1818182   0.5248639   0.0000000), wk =   0.1983471
        k(   15) = (   0.2727273   0.4723775   0.0000000), wk =   0.0991736
        k(   16) = (   0.2727273   0.5773503   0.0000000), wk =   0.0991736

                       cryst. coord.
        k(    1) = (   0.0000000   0.0000000   0.0000000), wk =   0.0165289
        k(    2) = (   0.0000000   0.0909091   0.0000000), wk =   0.0991736
        k(    3) = (   0.0000000   0.1818182   0.0000000), wk =   0.0991736
        k(    4) = (   0.0000000   0.2727273   0.0000000), wk =   0.0991736
        k(    5) = (   0.0000000   0.3636364   0.0000000), wk =   0.0991736
        k(    6) = (   0.0000000   0.4545455   0.0000000), wk =   0.0991736
        k(    7) = (   0.0909091   0.0909091   0.0000000), wk =   0.0991736
        k(    8) = (   0.0909091   0.1818182   0.0000000), wk =   0.1983471
        k(    9) = (   0.0909091   0.2727273   0.0000000), wk =   0.1983471
        k(   10) = (   0.0909091   0.3636364   0.0000000), wk =   0.1983471
        k(   11) = (   0.0909091   0.4545455   0.0000000), wk =   0.0991736
        k(   12) = (   0.1818182   0.1818182   0.0000000), wk =   0.0991736
        k(   13) = (   0.1818182   0.2727273   0.0000000), wk =   0.1983471
        k(   14) = (   0.1818182   0.3636364   0.0000000), wk =   0.1983471
        k(   15) = (   0.2727273   0.2727273   0.0000000), wk =   0.0991736
        k(   16) = (   0.2727273   0.3636364   0.0000000), wk =   0.0991736

     Dense  grid:   369475 G-vectors     FFT dimensions: (  45,  45, 486)

     Smooth grid:    93023 G-vectors     FFT dimensions: (  25,  25, 320)

     Dynamical RAM for                 wfc:       2.23 MB

     Dynamical RAM for     wfc (w. buffer):      37.83 MB

     Dynamical RAM for           str. fact:       5.64 MB

     Dynamical RAM for           local pot:       0.00 MB

     Dynamical RAM for          nlocal pot:       3.03 MB

     Dynamical RAM for                qrad:       3.21 MB

     Dynamical RAM for          rho,v,vnew:      19.72 MB

     Dynamical RAM for               rhoin:       6.57 MB

     Dynamical RAM for            rho*nmix:      45.10 MB

     Dynamical RAM for           G-vectors:      10.93 MB

     Dynamical RAM for          h,s,v(r/c):       0.11 MB

     Dynamical RAM for          <psi|beta>:       0.01 MB

     Dynamical RAM for                 psi:       4.45 MB

     Dynamical RAM for                hpsi:       4.45 MB

     Dynamical RAM for                spsi:       4.45 MB

     Dynamical RAM for      wfcinit/wfcrot:       4.46 MB

     Dynamical RAM for           addusdens:     529.97 MB

     Estimated static dynamical RAM per process >     159.25 MB

     Estimated max dynamical RAM per process >     689.22 MB

     Estimated total dynamical RAM >       1.35 GB

     Initial potential from superposition of free atoms

     starting charge   24.99887, renormalised to   25.00000

     negative rho (up, down):  3.555E-04 0.000E+00
     Starting wfcs are   21 randomized atomic wfcs +    4 random wfcs
     Checking if some PAW data can be deallocated... 
       PAW data deallocated on    1 nodes for type:  1

     total cpu time spent up to now is        7.7 secs

     Self-consistent Calculation

     iteration #  1     ecut=    40.00 Ry     beta= 0.70
     Davidson diagonalization with overlap
     ethr =  1.00E-02,  avg # of iterations =  8.7

     negative rho (up, down):  4.216E-04 0.000E+00

     total cpu time spent up to now is       27.3 secs

     total energy              =    -450.95143347 Ry
     estimated scf accuracy    <       2.39989439 Ry

     iteration #  2     ecut=    40.00 Ry     beta= 0.70
     Davidson diagonalization with overlap
     ethr =  9.60E-03,  avg # of iterations =  5.8

     negative rho (up, down):  7.182E-04 0.000E+00

     total cpu time spent up to now is       49.0 secs

     total energy              =    -447.31438516 Ry
     estimated scf accuracy    <     208.66792312 Ry

     iteration #  3     ecut=    40.00 Ry     beta= 0.70
     Davidson diagonalization with overlap
     ethr =  9.60E-03,  avg # of iterations =  6.2

     negative rho (up, down):  5.338E-04 0.000E+00

     total cpu time spent up to now is       70.7 secs

     total energy              =    -451.86266206 Ry
     estimated scf accuracy    <      26.14960890 Ry

     iteration #  4     ecut=    40.00 Ry     beta= 0.70
     Davidson diagonalization with overlap
     ethr =  9.60E-03,  avg # of iterations =  3.0

     negative rho (up, down):  4.619E-04 0.000E+00

     total cpu time spent up to now is       85.3 secs

     total energy              =    -452.64436713 Ry
     estimated scf accuracy    <      13.06411947 Ry

     iteration #  5     ecut=    40.00 Ry     beta= 0.70
     Davidson diagonalization with overlap
     ethr =  9.60E-03,  avg # of iterations =  1.4

     negative rho (up, down):  4.395E-04 0.000E+00

     total cpu time spent up to now is       98.2 secs

     total energy              =    -453.00496993 Ry
     estimated scf accuracy    <       0.92683829 Ry

     iteration #  6     ecut=    40.00 Ry     beta= 0.70
     Davidson diagonalization with overlap
     ethr =  3.71E-03,  avg # of iterations =  1.4

     negative rho (up, down):  4.406E-04 0.000E+00

     total cpu time spent up to now is      111.1 secs

     total energy              =    -452.95188951 Ry
     estimated scf accuracy    <       1.71043150 Ry

     iteration #  7     ecut=    40.00 Ry     beta= 0.70
     Davidson diagonalization with overlap
     ethr =  3.71E-03,  avg # of iterations =  1.1

     negative rho (up, down):  4.441E-04 0.000E+00

     total cpu time spent up to now is      123.7 secs

     total energy              =    -452.98082681 Ry
     estimated scf accuracy    <       0.03961825 Ry

     iteration #  8     ecut=    40.00 Ry     beta= 0.70
     Davidson diagonalization with overlap
     ethr =  1.58E-04,  avg # of iterations =  8.1

     negative rho (up, down):  4.427E-04 0.000E+00

     total cpu time spent up to now is      140.6 secs

     total energy              =    -452.98712175 Ry
     estimated scf accuracy    <       0.22464739 Ry

     iteration #  9     ecut=    40.00 Ry     beta= 0.70
     Davidson diagonalization with overlap
     ethr =  1.58E-04,  avg # of iterations =  1.0

     negative rho (up, down):  4.656E-04 0.000E+00

     total cpu time spent up to now is      153.4 secs

     total energy              =    -452.96133596 Ry
     estimated scf accuracy    <       0.44663425 Ry

     iteration # 10     ecut=    40.00 Ry     beta= 0.70
     Davidson diagonalization with overlap
     ethr =  1.58E-04,  avg # of iterations =  1.1

     negative rho (up, down):  4.610E-04 0.000E+00

     total cpu time spent up to now is      166.2 secs

     total energy              =    -452.97582000 Ry
     estimated scf accuracy    <       0.08748266 Ry

     iteration # 11     ecut=    40.00 Ry     beta= 0.70
     Davidson diagonalization with overlap
     ethr =  1.58E-04,  avg # of iterations =  1.0

     negative rho (up, down):  4.599E-04 0.000E+00

     total cpu time spent up to now is      178.9 secs

     total energy              =    -452.97195729 Ry
     estimated scf accuracy    <       0.07254270 Ry

     iteration # 12     ecut=    40.00 Ry     beta= 0.70
     Davidson diagonalization with overlap
     ethr =  1.58E-04,  avg # of iterations =  1.0

     negative rho (up, down):  4.799E-04 0.000E+00

     total cpu time spent up to now is      191.7 secs

     total energy              =    -452.96901089 Ry
     estimated scf accuracy    <       0.06658216 Ry

     iteration # 13     ecut=    40.00 Ry     beta= 0.70
     Davidson diagonalization with overlap
     ethr =  1.58E-04,  avg # of iterations =  1.0

     negative rho (up, down):  4.702E-04 0.000E+00

     total cpu time spent up to now is      204.4 secs

     total energy              =    -452.97021156 Ry
     estimated scf accuracy    <       0.04789050 Ry

     iteration # 14     ecut=    40.00 Ry     beta= 0.70
     Davidson diagonalization with overlap
     ethr =  1.58E-04,  avg # of iterations =  1.0

     negative rho (up, down):  4.701E-04 0.000E+00

     total cpu time spent up to now is      217.1 secs

     total energy              =    -452.97229218 Ry
     estimated scf accuracy    <       0.01588812 Ry

     iteration # 15     ecut=    40.00 Ry     beta= 0.70
     Davidson diagonalization with overlap
     ethr =  6.36E-05,  avg # of iterations =  1.0

     negative rho (up, down):  4.688E-04 0.000E+00

     total cpu time spent up to now is      229.8 secs

     total energy              =    -452.97221629 Ry
     estimated scf accuracy    <       0.01231013 Ry

     iteration # 16     ecut=    40.00 Ry     beta= 0.70
     Davidson diagonalization with overlap
     ethr =  4.92E-05,  avg # of iterations =  1.0

     negative rho (up, down):  4.685E-04 0.000E+00

     total cpu time spent up to now is      242.5 secs

     total energy              =    -452.97207620 Ry
     estimated scf accuracy    <       0.00682986 Ry

     iteration # 17     ecut=    40.00 Ry     beta= 0.70
     Davidson diagonalization with overlap
     ethr =  2.73E-05,  avg # of iterations =  1.5

     negative rho (up, down):  4.686E-04 0.000E+00

     total cpu time spent up to now is      255.5 secs

     total energy              =    -452.97207840 Ry
     estimated scf accuracy    <       0.00103138 Ry

     iteration # 18     ecut=    40.00 Ry     beta= 0.70
     Davidson diagonalization with overlap
     ethr =  4.13E-06,  avg # of iterations =  2.8

     negative rho (up, down):  4.685E-04 0.000E+00

     total cpu time spent up to now is      268.9 secs

     total energy              =    -452.97208103 Ry
     estimated scf accuracy    <       0.00024272 Ry

     iteration # 19     ecut=    40.00 Ry     beta= 0.70
     Davidson diagonalization with overlap
     ethr =  9.71E-07,  avg # of iterations =  1.9

     negative rho (up, down):  4.686E-04 0.000E+00

     total cpu time spent up to now is      282.2 secs

     total energy              =    -452.97208449 Ry
     estimated scf accuracy    <       0.00000062 Ry

     iteration # 20     ecut=    40.00 Ry     beta= 0.70
     Davidson diagonalization with overlap
     ethr =  2.49E-09,  avg # of iterations =  2.0

     negative rho (up, down):  4.686E-04 0.000E+00

     total cpu time spent up to now is      296.0 secs

     total energy              =    -452.97208455 Ry
     estimated scf accuracy    <       0.00000004 Ry

     iteration # 21     ecut=    40.00 Ry     beta= 0.70
     Davidson diagonalization with overlap
     ethr =  1.44E-10,  avg # of iterations =  2.1

     negative rho (up, down):  4.686E-04 0.000E+00

     total cpu time spent up to now is      310.0 secs

     End of self-consistent calculation

          k = 0.0000 0.0000 0.0000 ( 11841 PWs)   bands (ev):

   -60.2162 -36.5510 -35.9804 -35.9804 -16.1648 -16.1648  -8.0116  -5.9313
    -5.9202  -4.8378  -4.3451  -4.3451  -3.4790  -3.4790  -3.4788  -3.4788
    -3.2661  -3.2661  -3.0355   1.4007   1.8349   2.3434   2.5738   2.5760
     3.1043

     occupation numbers 
     1.0000   1.0000   1.0000   1.0000   1.0000   1.0000   1.0000   1.0000
     1.0000   0.9320  -0.0352  -0.0352  -0.0000  -0.0000  -0.0000  -0.0000
    -0.0000  -0.0000  -0.0000  -0.0000  -0.0000  -0.0000  -0.0000  -0.0000
    -0.0000

          k = 0.0000 0.1050 0.0000 ( 11749 PWs)   bands (ev):

   -60.2145 -36.5489 -35.9981 -35.9847 -16.1000 -16.1000  -7.8181  -5.8546
    -5.8491  -4.7856  -4.4612  -4.2070  -3.8839  -3.8576  -3.8053  -3.5538
    -3.5535  -3.3007  -2.4070   1.5608   2.0098   2.4792   2.6904   2.7248
     3.2214

     occupation numbers 
     1.0000   1.0000   1.0000   1.0000   1.0000   1.0000   1.0000   1.0000
     1.0000   0.8328   0.0220  -0.0190  -0.0002  -0.0001  -0.0000  -0.0000
    -0.0000  -0.0000  -0.0000  -0.0000  -0.0000  -0.0000  -0.0000  -0.0000
    -0.0000

          k = 0.0000 0.2099 0.0000 ( 11725 PWs)   bands (ev):

   -60.2101 -36.5431 -36.0454 -35.9962 -15.9177 -15.9176  -7.2804  -5.6517
    -5.6407  -4.7831  -4.7565  -4.7127  -4.5928  -4.3926  -3.8118  -3.7440
    -3.7434  -3.3919  -1.6273   1.9634   2.4582   2.8526   3.0243   3.1608
     3.5790

     occupation numbers 
     1.0000   1.0000   1.0000   1.0000   1.0000   1.0000   1.0000   1.0000
     1.0000   0.8274   0.7625   0.6400   0.2785  -0.0260  -0.0000  -0.0000
    -0.0000  -0.0000  -0.0000  -0.0000  -0.0000  -0.0000  -0.0000  -0.0000
    -0.0000

          k = 0.0000 0.3149 0.0000 ( 11721 PWs)   bands (ev):

   -60.2043 -36.5355 -36.1068 -36.0114 -15.6569 -15.6568  -6.6108  -5.7590
    -5.7564  -5.3823  -5.3484  -4.8309  -4.7586  -4.4120  -3.9738  -3.9734
    -3.5076  -3.2236  -0.8026   2.5043   3.0671   3.2415   3.6674   3.8576
     4.1686

     occupation numbers 
     1.0000   1.0000   1.0000   1.0000   1.0000   1.0000   1.0000   1.0000
     1.0000   1.0006   1.0011   0.9211   0.7678  -0.0173  -0.0009  -0.0009
    -0.0000  -0.0000  -0.0000  -0.0000  -0.0000  -0.0000  -0.0000  -0.0000
    -0.0000

          k = 0.0000 0.4199 0.0000 ( 11653 PWs)   bands (ev):

   -60.1989 -36.5285 -36.1626 -36.0252 -15.3893 -15.3893  -6.5950  -6.5908
    -6.3025  -5.3153  -5.0458  -4.9223  -4.2388  -4.1688  -4.1684  -4.0662
    -3.6104  -2.5810   0.0253   2.3876   3.0109   3.4250   3.6018   3.9759
     4.3204

     occupation numbers 
     1.0000   1.0000   1.0000   1.0000   1.0000   1.0000   1.0000   1.0000
     1.0000   1.0019   1.0321   1.0175  -0.0243  -0.0133  -0.0132  -0.0039
    -0.0000  -0.0000  -0.0000  -0.0000  -0.0000  -0.0000  -0.0000  -0.0000
    -0.0000

          k = 0.0000 0.5249 0.0000 ( 11602 PWs)   bands (ev):

   -60.1957 -36.5244 -36.1955 -36.0333 -15.2141 -15.2141  -7.0698  -7.0686
    -6.3176  -5.4337  -4.8158  -4.7697  -4.2784  -4.2780  -4.1041  -3.6700
    -3.0340  -2.1269   0.6714   0.7883   3.0797   3.1479   3.5502   3.7127
     4.5128

     occupation numbers 
     1.0000   1.0000   1.0000   1.0000   1.0000   1.0000   1.0000   1.0000
     1.0000   1.0002   0.8948   0.7956  -0.0307  -0.0307  -0.0064  -0.0000
    -0.0000  -0.0000  -0.0000  -0.0000  -0.0000  -0.0000  -0.0000  -0.0000
    -0.0000

          k = 0.0909 0.1575 0.0000 ( 11759 PWs)   bands (ev):

   -60.2115 -36.5449 -36.0296 -35.9937 -15.9763 -15.9763  -7.4479  -5.7145
    -5.7082  -4.6984  -4.6632  -4.4700  -4.4414  -4.2388  -3.9220  -3.7216
    -3.7214  -3.3783  -1.8344   1.8407   2.3196   2.7369   2.9117   3.0180
     3.4591

     occupation numbers 
     1.0000   1.0000   1.0000   1.0000   1.0000   1.0000   1.0000   1.0000
     1.0000   0.5971   0.4884   0.0320   0.0029  -0.0243  -0.0004  -0.0000
    -0.0000  -0.0000  -0.0000  -0.0000  -0.0000  -0.0000  -0.0000  -0.0000
    -0.0000

          k = 0.0909 0.2624 0.0000 ( 11730 PWs)   bands (ev):

   -60.2063 -36.5382 -36.0812 -36.0097 -15.7537 -15.7537  -6.7944  -5.4888
    -5.4574  -5.3264  -5.3261  -4.9059  -4.6734  -4.4972  -4.0088  -4.0086
    -3.5177  -3.3773  -1.0721   2.3198   2.8574   3.1290   3.4000   3.5872
     3.9478

     occupation numbers 
     1.0000   1.0000   1.0000   1.0000   1.0000   1.0000   1.0000   1.0001
     1.0002   1.0016   1.0016   1.0074   0.5201   0.0695  -0.0017  -0.0016
    -0.0000  -0.0000  -0.0000  -0.0000  -0.0000  -0.0000  -0.0000  -0.0000
    -0.0000

          k = 0.0909 0.3674 0.0000 ( 11692 PWs)   bands (ev):

   -60.2008 -36.5309 -36.1368 -36.0272 -15.4864 -15.4864  -6.2512  -6.2010
    -6.1671  -5.2688  -5.1668  -4.9257  -4.7230  -4.3075  -4.2935  -4.2808
    -3.6679  -2.6638  -0.2374   2.8548   3.3018   3.4440   3.7060   4.2259
     4.3697

     occupation numbers 
     1.0000   1.0000   1.0000   1.0000   1.0000   1.0000   1.0000   1.0000
     1.0000   1.0038   1.0131   1.0193   0.6703  -0.0342  -0.0327  -0.0311
    -0.0000  -0.0000  -0.0000  -0.0000  -0.0000  -0.0000  -0.0000  -0.0000
    -0.0000

          k = 0.0909 0.4724 0.0000 ( 11609 PWs)   bands (ev):

   -60.1965 -36.5253 -36.1788 -36.0405 -15.2598 -15.2598  -6.8308  -6.8293
    -6.1399  -5.3408  -4.8818  -4.8124  -4.4935  -4.4929  -4.1350  -3.8911
    -3.7807  -1.9170   0.5598   1.4936   3.1721   3.4442   3.8471   4.1318
     4.6268

     occupation numbers 
     1.0000   1.0000   1.0000   1.0000   1.0000   1.0000   1.0000   1.0000
     1.0000   1.0013   0.9873   0.8884   0.0639   0.0629  -0.0092  -0.0002
    -0.0000  -0.0000  -0.0000  -0.0000  -0.0000  -0.0000  -0.0000  -0.0000
    -0.0000

          k = 0.0909 0.5774 0.0000 ( 11604 PWs)   bands (ev):

   -60.1949 -36.5233 -36.1944 -36.0455 -15.1692 -15.1692  -7.0619  -7.0609
    -6.1730  -5.3995  -4.7606  -4.7231  -4.5640  -4.5637  -4.0738  -3.8223
    -3.3457  -1.4296   0.4442   0.9643   3.1693   3.2106   3.8935   3.9930
     4.5812

     occupation numbers 
     1.0000   1.0000   1.0000   1.0000   1.0000   1.0000   1.0000   1.0000
     1.0000   1.0005   0.7729   0.6705   0.2039   0.2031  -0.0043  -0.0001
    -0.0000  -0.0000  -0.0000  -0.0000  -0.0000  -0.0000  -0.0000  -0.0000
    -0.0000

          k = 0.1818 0.3149 0.0000 ( 11683 PWs)   bands (ev):

   -60.2015 -36.5318 -36.1221 -36.0330 -15.5221 -15.5221  -6.0876  -5.9606
    -5.9389  -5.2659  -5.1742  -5.1447  -4.8740  -4.4801  -4.4783  -4.3244
    -3.7493  -2.6393  -0.3047   2.8308   3.4208   3.4510   4.0843   4.2759
     4.2787

     occupation numbers 
     1.0000   1.0000   1.0000   1.0000   1.0000   1.0000   1.0000   1.0000
     1.0000   1.0040   1.0121   1.0162   0.9793   0.0449   0.0424  -0.0353
    -0.0000  -0.0000  -0.0000  -0.0000  -0.0000  -0.0000  -0.0000  -0.0000
    -0.0000

          k = 0.1818 0.4199 0.0000 ( 11632 PWs)   bands (ev):

   -60.1970 -36.5260 -36.1565 -36.0573 -15.2888 -15.2888  -6.4938  -6.4921
    -5.6517  -5.2128  -4.9885  -4.9159  -4.9151  -4.8221  -4.7848  -4.1549
    -3.9914  -1.7285   0.5554   2.3516   3.2604   3.7861   3.9387   4.3907
     4.7782

     occupation numbers 
     1.0000   1.0000   1.0000   1.0000   1.0000   1.0000   1.0000   1.0000
     1.0000   1.0078   1.0352   1.0139   1.0134   0.9062   0.8311  -0.0115
    -0.0013  -0.0000  -0.0000  -0.0000  -0.0000  -0.0000  -0.0000  -0.0000
    -0.0000

          k = 0.1818 0.5249 0.0000 ( 11629 PWs)   bands (ev):

   -60.1943 -36.5225 -36.1760 -36.0726 -15.1386 -15.1386  -6.8105  -6.8096
    -5.7354  -5.2475  -5.1631  -5.1570  -4.7325  -4.6909  -4.1477  -4.1451
    -4.0491  -0.7753   0.7229   1.2952   3.3548   3.5861   3.7650   4.5545
     4.5742

     occupation numbers 
     1.0000   1.0000   1.0000   1.0000   1.0000   1.0000   1.0000   1.0000
     1.0000   1.0051   1.0136   1.0144   0.6974   0.5741  -0.0106  -0.0103
    -0.0030  -0.0000  -0.0000  -0.0000  -0.0000  -0.0000  -0.0000  -0.0000
    -0.0000

          k = 0.2727 0.4724 0.0000 ( 11648 PWs)   bands (ev):

   -60.1941 -36.5222 -36.1597 -36.0923 -15.1280 -15.1280  -6.5680  -6.5672
    -5.5544  -5.5544  -5.2151  -5.1138  -4.8670  -4.6775  -4.6620  -4.3490
    -4.0458  -0.6464   1.2921   1.4337   2.7731   3.6989   4.0434   4.5567
     4.8275

     occupation numbers 
     1.0000   1.0000   1.0000   1.0000   1.0000   1.0000   1.0000   1.0000
     1.0000   1.0000   1.0076   1.0211   0.9715   0.5329   0.4847  -0.0349
    -0.0029  -0.0000  -0.0000  -0.0000  -0.0000  -0.0000  -0.0000  -0.0000
    -0.0000

          k = 0.2727 0.5774 0.0000 ( 11616 PWs)   bands (ev):

   -60.1930 -36.5207 -36.1543 -36.1119 -15.0657 -15.0657  -6.5172  -6.5166
    -5.8701  -5.8698  -5.1946  -5.0103  -4.6799  -4.6536  -4.5406  -4.5164
    -4.0128   0.1885   0.5684   1.9684   2.1237   3.7638   3.9803   4.7134
     4.8429

     occupation numbers 
     1.0000   1.0000   1.0000   1.0000   1.0000   1.0000   1.0000   1.0000
     1.0000   1.0000   1.0097   1.0353   0.5401   0.4584   0.1500   0.1020
    -0.0018  -0.0000  -0.0000  -0.0000  -0.0000  -0.0000  -0.0000  -0.0000
    -0.0000

     the Fermi energy is    -4.6670 ev

!    total energy              =    -452.97208455 Ry

     total all-electron energy =     -9223.176596 Ry
     estimated scf accuracy    <          1.6E-09 Ry
     smearing contrib. (-TS)   =      -0.00241414 Ry
     internal energy E=F+TS    =    -452.96967041 Ry

     The total energy is F=E-TS. E is the sum of the following terms:
     one-electron contribution =   -1481.46360609 Ry
     hartree contribution      =     740.15869565 Ry
     xc contribution           =     -31.35550720 Ry
     ewald contribution        =     613.75036080 Ry
     one-center paw contrib.   =    -294.05961356 Ry
      -> PAW hartree energy AE =      81.84950138 Ry
      -> PAW hartree energy PS =     -81.36419262 Ry
      -> PAW xc energy AE      =    -275.71859709 Ry
      -> PAW xc energy PS      =      22.84518543 Ry
      -> total E_H with PAW    =     740.64400441 Ry
      -> total E_XC with PAW   =    -284.22891886 Ry

     convergence has been achieved in  21 iterations

     Writing output data file ./tmp/NbS2.save/

     init_run     :      6.28s CPU      6.68s WALL (       1 calls)
     electrons    :    289.32s CPU    302.46s WALL (       1 calls)

     Called by init_run:
     wfcinit      :      3.64s CPU      3.68s WALL (       1 calls)
     wfcinit:atom :      0.03s CPU      0.03s WALL (      16 calls)
     wfcinit:wfcr :      3.53s CPU      3.57s WALL (      16 calls)
     potinit      :      0.67s CPU      0.71s WALL (       1 calls)
     hinit0       :      1.00s CPU      1.03s WALL (       1 calls)

     Called by electrons:
     c_bands      :    195.65s CPU    197.58s WALL (      21 calls)
     sum_band     :     68.35s CPU     74.62s WALL (      21 calls)
     v_of_rho     :      1.80s CPU      1.85s WALL (      22 calls)
     v_h          :      1.00s CPU      1.03s WALL (      22 calls)
     v_xc         :      0.80s CPU      0.82s WALL (      22 calls)
     newd         :     19.80s CPU     24.87s WALL (      22 calls)
     PAW_pot      :      1.17s CPU      1.18s WALL (      22 calls)
     mix_rho      :      2.20s CPU      2.24s WALL (      21 calls)

     Called by c_bands:
     init_us_2    :      1.65s CPU      1.67s WALL (     688 calls)
     cegterg      :    192.30s CPU    194.15s WALL (     336 calls)

     Called by sum_band:
     sum_band:wei :      0.01s CPU      0.01s WALL (      21 calls)
     sum_band:loo :     36.52s CPU     36.95s WALL (      21 calls)
     sum_band:buf :      0.38s CPU      0.39s WALL (     336 calls)
     sum_band:ini :      0.80s CPU      0.80s WALL (     336 calls)
     sum_band:cal :      3.95s CPU      3.97s WALL (     336 calls)
     sum_band:bec :      0.01s CPU      0.01s WALL (     336 calls)
     addusdens    :     29.88s CPU     35.63s WALL (      21 calls)
     addusd:skk   :      0.06s CPU      0.08s WALL (      42 calls)
     addusd:dgemm :      7.81s CPU     12.39s WALL (      42 calls)
     addusd:qvan2 :     20.57s CPU     20.57s WALL (      42 calls)

     Called by *egterg:
     cdiaghg      :      0.95s CPU      0.95s WALL (    1201 calls)
     cegterg:over :     12.44s CPU     12.47s WALL (     865 calls)
     cegterg:upda :      6.90s CPU      6.93s WALL (     865 calls)
     cegterg:last :     16.28s CPU     16.29s WALL (     545 calls)
     h_psi        :    142.96s CPU    144.72s WALL (    1217 calls)
     s_psi        :      8.71s CPU      8.74s WALL (    1217 calls)
     g_psi        :      0.32s CPU      0.32s WALL (     865 calls)

     Called by h_psi:
     h_psi:calbec :      9.47s CPU      9.52s WALL (    1217 calls)
     vloc_psi     :    124.56s CPU    126.25s WALL (    1217 calls)
     add_vuspsi   :      8.09s CPU      8.10s WALL (    1217 calls)

     General routines
     calbec       :     13.41s CPU     13.48s WALL (    1553 calls)
     fft          :      4.72s CPU      4.83s WALL (     130 calls)
     ffts         :      0.26s CPU      0.26s WALL (      43 calls)
     fftw         :    129.62s CPU    131.36s WALL (   47822 calls)
     interpolate  :      1.00s CPU      1.03s WALL (      22 calls)

     Parallel routines
     fft_scatt_xy :     20.87s CPU     21.14s WALL (   47995 calls)
     fft_scatt_yz :     14.04s CPU     14.36s WALL (   47995 calls)

     PAW routines
     PAW_pot      :      1.17s CPU      1.18s WALL (      22 calls)
     PAW_symme    :      0.02s CPU      0.02s WALL (      43 calls)

     PWSCF        :   4m56.71s CPU   5m10.80s WALL


   This run was terminated on:  16:29: 3  10Jun2021            

=------------------------------------------------------------------------------=
   JOB DONE.
=------------------------------------------------------------------------------=
