
     Program PWSCF v.6.6 starts on 10Jun2021 at 16:13:51 

     This program is part of the open-source Quantum ESPRESSO suite
     for quantum simulation of materials; please cite
         "P. Giannozzi et al., J. Phys.:Condens. Matter 21 395502 (2009);
         "P. Giannozzi et al., J. Phys.:Condens. Matter 29 465901 (2017);
          URL http://www.quantum-espresso.org", 
     in publications or presentations arising from this work. More details at
     http://www.quantum-espresso.org/quote

     Parallel version (MPI), running on     2 processors

     MPI processes distributed on     1 nodes
     R & G space division:  proc/nbgrp/npool/nimage =       2
     Fft bands division:     nmany     =       1
     Waiting for input...
     Reading input from standard input

     Current dimensions of program PWSCF are:
     Max number of different atomic species (ntypx) = 10
     Max number of k-points (npk) =  40000
     Max angular momentum in pseudopotentials (lmaxx) =  3
     file Nb.pz-spn-kjpaw_psl.1.0.0.UPF: wavefunction(s)  4S 4P 4D renormalized
     file S.pz-n-kjpaw_psl.0.1.UPF: wavefunction(s)  3P renormalized

     Subspace diagonalization in iterative solution of the eigenvalue problem:
     a serial algorithm will be used


     Parallelization info
     --------------------
     sticks:   dense  smooth     PW     G-vecs:    dense   smooth      PW
     Min         579     225     69               184729    46499    7761
     Max         580     226     70               184746    46524    7784
     Sum        1159     451    139               369475    93023   15545



     bravais-lattice index     =            4
     lattice parameter (alat)  =       6.4591  a.u.
     unit-cell volume          =    2731.0606 (a.u.)^3
     number of atoms/cell      =            3
     number of atomic types    =            2
     number of electrons       =        25.00
     number of Kohn-Sham states=           25
     kinetic-energy cutoff     =      40.0000  Ry
     charge density cutoff     =     400.0000  Ry
     convergence threshold     =      1.0E-08
     mixing beta               =       0.7000
     number of iterations used =            8  plain     mixing
     Exchange-correlation= SLA PZ NOGX NOGC
                           (   1   1   0   0   0   0   0)

     celldm(1)=   6.459084  celldm(2)=   0.000000  celldm(3)=  11.702750
     celldm(4)=   0.000000  celldm(5)=   0.000000  celldm(6)=   0.000000

     crystal axes: (cart. coord. in units of alat)
               a(1) = (   1.000000   0.000000   0.000000 )  
               a(2) = (  -0.500000   0.866025   0.000000 )  
               a(3) = (   0.000000   0.000000  11.702750 )  

     reciprocal axes: (cart. coord. in units 2 pi/alat)
               b(1) = (  1.000000  0.577350 -0.000000 )  
               b(2) = (  0.000000  1.154701  0.000000 )  
               b(3) = (  0.000000 -0.000000  0.085450 )  


     PseudoPot. # 1 for Nb read from file:
     ../Nb.pz-spn-kjpaw_psl.1.0.0.UPF
     MD5 check sum: 38c2e04b3cc915696ca8dc9f46a23270
     Pseudo is Projector augmented-wave + core cor, Zval = 13.0
     Generated using "atomic" code by A. Dal Corso v.6.2.2
     Shape of augmentation charge: PSQ
     Using radial grid of 1227 points,  6 beta functions with: 
                l(1) =   0
                l(2) =   0
                l(3) =   1
                l(4) =   1
                l(5) =   2
                l(6) =   2
     Q(r) pseudized with 0 coefficients 


     PseudoPot. # 2 for S  read from file:
     ../S.pz-n-kjpaw_psl.0.1.UPF
     MD5 check sum: c0b1682311cf098e03f7841691d9a679
     Pseudo is Projector augmented-wave + core cor, Zval =  6.0
     Generated using "atomic" code by A. Dal Corso v.5.0.2 svn rev. 9415
     Shape of augmentation charge: PSQ
     Using radial grid of 1151 points,  4 beta functions with: 
                l(1) =   0
                l(2) =   0
                l(3) =   1
                l(4) =   1
     Q(r) pseudized with 0 coefficients 


     atomic species   valence    mass     pseudopotential
        Nb            13.00    92.90600     Nb( 1.00)
        S              6.00    32.06500     S ( 1.00)

     12 Sym. Ops. (no inversion) found ( 6 have fractional translation)


                                    s                        frac. trans.

      isym =  1     identity                                     

 cryst.   s( 1) = (     1          0          0      )
                  (     0          1          0      )
                  (     0          0          1      )

 cart.    s( 1) = (  1.0000000  0.0000000  0.0000000 )
                  (  0.0000000  1.0000000  0.0000000 )
                  (  0.0000000  0.0000000  1.0000000 )


      isym =  2     180 deg rotation - cart. axis [0,1,0]        

 cryst.   s( 2) = (    -1          0          0      )    f =(  0.0000000 )
                  (     1          1          0      )       (  0.0000000 )
                  (     0          0         -1      )       (  0.5000000 )

 cart.    s( 2) = ( -1.0000000  0.0000000  0.0000000 )    f =(  0.0000000 )
                  (  0.0000000  1.0000000  0.0000000 )       (  0.0000000 )
                  (  0.0000000  0.0000000 -1.0000000 )       (  5.8513751 )


      isym =  3     120 deg rotation - cryst. axis [0,0,1]       

 cryst.   s( 3) = (     0          1          0      )
                  (    -1         -1          0      )
                  (     0          0          1      )

 cart.    s( 3) = ( -0.5000000 -0.8660254  0.0000000 )
                  (  0.8660254 -0.5000000  0.0000000 )
                  (  0.0000000  0.0000000  1.0000000 )


      isym =  4     120 deg rotation - cryst. axis [0,0,-1]      

 cryst.   s( 4) = (    -1         -1          0      )
                  (     1          0          0      )
                  (     0          0          1      )

 cart.    s( 4) = ( -0.5000000  0.8660254  0.0000000 )
                  ( -0.8660254 -0.5000000  0.0000000 )
                  (  0.0000000  0.0000000  1.0000000 )


      isym =  5     180 deg rotation - cryst. axis [1,-1,0]      

 cryst.   s( 5) = (     0         -1          0      )    f =(  0.0000000 )
                  (    -1          0          0      )       (  0.0000000 )
                  (     0          0         -1      )       (  0.5000000 )

 cart.    s( 5) = (  0.5000000 -0.8660254  0.0000000 )    f =(  0.0000000 )
                  ( -0.8660254 -0.5000000  0.0000000 )       (  0.0000000 )
                  (  0.0000000  0.0000000 -1.0000000 )       (  5.8513751 )


      isym =  6     180 deg rotation - cryst. axis [2,1,0]       

 cryst.   s( 6) = (     1          1          0      )    f =(  0.0000000 )
                  (     0         -1          0      )       (  0.0000000 )
                  (     0          0         -1      )       (  0.5000000 )

 cart.    s( 6) = (  0.5000000  0.8660254  0.0000000 )    f =( -0.0000000 )
                  (  0.8660254 -0.5000000  0.0000000 )       (  0.0000000 )
                  (  0.0000000  0.0000000 -1.0000000 )       (  5.8513751 )


      isym =  7     inv. 180 deg rotation - cart. axis [0,0,1]   

 cryst.   s( 7) = (     1          0          0      )    f =(  0.0000000 )
                  (     0          1          0      )       (  0.0000000 )
                  (     0          0         -1      )       (  0.5000000 )

 cart.    s( 7) = (  1.0000000  0.0000000  0.0000000 )    f =(  0.0000000 )
                  (  0.0000000  1.0000000  0.0000000 )       (  0.0000000 )
                  (  0.0000000  0.0000000 -1.0000000 )       (  5.8513751 )


      isym =  8     inv. 180 deg rotation - cart. axis [1,0,0]   

 cryst.   s( 8) = (    -1          0          0      )
                  (     1          1          0      )
                  (     0          0          1      )

 cart.    s( 8) = ( -1.0000000  0.0000000  0.0000000 )
                  (  0.0000000  1.0000000  0.0000000 )
                  (  0.0000000  0.0000000  1.0000000 )


      isym =  9     inv.  60 deg rotation - cryst. axis [0,0,1]  

 cryst.   s( 9) = (    -1         -1          0      )    f =(  0.0000000 )
                  (     1          0          0      )       (  0.0000000 )
                  (     0          0         -1      )       (  0.5000000 )

 cart.    s( 9) = ( -0.5000000  0.8660254  0.0000000 )    f =( -0.0000000 )
                  ( -0.8660254 -0.5000000  0.0000000 )       (  0.0000000 )
                  (  0.0000000  0.0000000 -1.0000000 )       (  5.8513751 )


      isym = 10     inv.  60 deg rotation - cryst. axis [0,0,-1] 

 cryst.   s(10) = (     0          1          0      )    f =(  0.0000000 )
                  (    -1         -1          0      )       (  0.0000000 )
                  (     0          0         -1      )       (  0.5000000 )

 cart.    s(10) = ( -0.5000000 -0.8660254  0.0000000 )    f =(  0.0000000 )
                  (  0.8660254 -0.5000000  0.0000000 )       (  0.0000000 )
                  (  0.0000000  0.0000000 -1.0000000 )       (  5.8513751 )


      isym = 11     inv. 180 deg rotation - cryst. axis [0,1,0]  

 cryst.   s(11) = (     1          1          0      )
                  (     0         -1          0      )
                  (     0          0          1      )

 cart.    s(11) = (  0.5000000  0.8660254  0.0000000 )
                  (  0.8660254 -0.5000000  0.0000000 )
                  (  0.0000000  0.0000000  1.0000000 )


      isym = 12     inv. 180 deg rotation - cryst. axis [1,1,0]  

 cryst.   s(12) = (     0         -1          0      )
                  (    -1          0          0      )
                  (     0          0          1      )

 cart.    s(12) = (  0.5000000 -0.8660254  0.0000000 )
                  ( -0.8660254 -0.5000000  0.0000000 )
                  (  0.0000000  0.0000000  1.0000000 )


     point group D_3h (-62m)
     there are  6 classes
     the character table:

       E     2C3   3C2   s_h   2S3   3s_v 
A'_1   1.00  1.00  1.00  1.00  1.00  1.00
A'_2   1.00  1.00 -1.00  1.00  1.00 -1.00
E'     2.00 -1.00  0.00  2.00 -1.00  0.00
A''1   1.00  1.00  1.00 -1.00 -1.00 -1.00
A''2   1.00  1.00 -1.00 -1.00 -1.00  1.00
E''    2.00 -1.00  0.00 -2.00  1.00  0.00

     the symmetry operations in each class and the name of the first element:

     E        1
          identity                                               
     2C3      3    4
          120 deg rotation - cryst. axis [0,0,1]                 
     3C2      2    6    5
          180 deg rotation - cart. axis [0,1,0]                  
     s_h      7
          inv. 180 deg rotation - cart. axis [0,0,1]             
     2S3      9   10
          inv.  60 deg rotation - cryst. axis [0,0,1]            
     3s_v     8   11   12
          inv. 180 deg rotation - cart. axis [1,0,0]             

   Cartesian axes

     site n.     atom                  positions (alat units)
         1           S   tau(   1) = (   0.0000000   0.5773503   4.3089526  )
         2           Nb  tau(   2) = (   0.0000000   0.0000000   2.9256875  )
         3           S   tau(   3) = (   0.0000000   0.5773503   1.5424225  )

   Crystallographic axes

     site n.     atom                  positions (cryst. coord.)
         1           S   tau(   1) = (  0.3333333  0.6666667  0.3682000  )
         2           Nb  tau(   2) = (  0.0000000  0.0000000  0.2500000  )
         3           S   tau(   3) = (  0.3333333  0.6666667  0.1318000  )

     number of k points=    12  Methfessel-Paxton smearing, width (Ry)=  0.0200
                       cart. coord. in units 2pi/alat
        k(    1) = (   0.0000000   0.0000000   0.0000000), wk =   0.0246914
        k(    2) = (   0.0000000   0.1283001   0.0000000), wk =   0.1481481
        k(    3) = (   0.0000000   0.2566001   0.0000000), wk =   0.1481481
        k(    4) = (   0.0000000   0.3849002   0.0000000), wk =   0.1481481
        k(    5) = (   0.0000000   0.5132002   0.0000000), wk =   0.1481481
        k(    6) = (   0.1111111   0.1924501   0.0000000), wk =   0.1481481
        k(    7) = (   0.1111111   0.3207501   0.0000000), wk =   0.2962963
        k(    8) = (   0.1111111   0.4490502   0.0000000), wk =   0.2962963
        k(    9) = (   0.1111111   0.5773503   0.0000000), wk =   0.1481481
        k(   10) = (   0.2222222   0.3849002   0.0000000), wk =   0.1481481
        k(   11) = (   0.2222222   0.5132002   0.0000000), wk =   0.2962963
        k(   12) = (   0.3333333   0.5773503   0.0000000), wk =   0.0493827

                       cryst. coord.
        k(    1) = (   0.0000000   0.0000000   0.0000000), wk =   0.0246914
        k(    2) = (   0.0000000   0.1111111   0.0000000), wk =   0.1481481
        k(    3) = (   0.0000000   0.2222222   0.0000000), wk =   0.1481481
        k(    4) = (   0.0000000   0.3333333   0.0000000), wk =   0.1481481
        k(    5) = (   0.0000000   0.4444444   0.0000000), wk =   0.1481481
        k(    6) = (   0.1111111   0.1111111   0.0000000), wk =   0.1481481
        k(    7) = (   0.1111111   0.2222222   0.0000000), wk =   0.2962963
        k(    8) = (   0.1111111   0.3333333   0.0000000), wk =   0.2962963
        k(    9) = (   0.1111111   0.4444444   0.0000000), wk =   0.1481481
        k(   10) = (   0.2222222   0.2222222   0.0000000), wk =   0.1481481
        k(   11) = (   0.2222222   0.3333333   0.0000000), wk =   0.2962963
        k(   12) = (   0.3333333   0.3333333   0.0000000), wk =   0.0493827

     Dense  grid:   369475 G-vectors     FFT dimensions: (  45,  45, 486)

     Smooth grid:    93023 G-vectors     FFT dimensions: (  25,  25, 320)

     Dynamical RAM for                 wfc:       2.23 MB

     Dynamical RAM for     wfc (w. buffer):      28.93 MB

     Dynamical RAM for           str. fact:       5.64 MB

     Dynamical RAM for           local pot:       0.00 MB

     Dynamical RAM for          nlocal pot:       3.03 MB

     Dynamical RAM for                qrad:       3.21 MB

     Dynamical RAM for          rho,v,vnew:      19.72 MB

     Dynamical RAM for               rhoin:       6.57 MB

     Dynamical RAM for            rho*nmix:      45.10 MB

     Dynamical RAM for           G-vectors:      10.93 MB

     Dynamical RAM for          h,s,v(r/c):       0.11 MB

     Dynamical RAM for          <psi|beta>:       0.01 MB

     Dynamical RAM for                 psi:       4.45 MB

     Dynamical RAM for                hpsi:       4.45 MB

     Dynamical RAM for                spsi:       4.45 MB

     Dynamical RAM for      wfcinit/wfcrot:       4.46 MB

     Dynamical RAM for           addusdens:     529.97 MB

     Estimated static dynamical RAM per process >     150.35 MB

     Estimated max dynamical RAM per process >     680.32 MB

     Estimated total dynamical RAM >       1.33 GB

     Initial potential from superposition of free atoms

     starting charge   24.99887, renormalised to   25.00000

     negative rho (up, down):  3.555E-04 0.000E+00
     Starting wfcs are   21 randomized atomic wfcs +    4 random wfcs
     Checking if some PAW data can be deallocated... 
       PAW data deallocated on    1 nodes for type:  1

     total cpu time spent up to now is        6.7 secs

     Self-consistent Calculation

     iteration #  1     ecut=    40.00 Ry     beta= 0.70
     Davidson diagonalization with overlap
     ethr =  1.00E-02,  avg # of iterations =  8.9

     negative rho (up, down):  4.218E-04 0.000E+00

     total cpu time spent up to now is       22.4 secs

     total energy              =    -450.89116705 Ry
     estimated scf accuracy    <       2.46650410 Ry

     iteration #  2     ecut=    40.00 Ry     beta= 0.70
     Davidson diagonalization with overlap
     ethr =  9.87E-03,  avg # of iterations =  5.8

     negative rho (up, down):  7.216E-04 0.000E+00

     total cpu time spent up to now is       39.4 secs

     total energy              =    -447.39793887 Ry
     estimated scf accuracy    <     209.35438905 Ry

     iteration #  3     ecut=    40.00 Ry     beta= 0.70
     Davidson diagonalization with overlap
     ethr =  9.87E-03,  avg # of iterations =  5.5

     negative rho (up, down):  5.373E-04 0.000E+00

     total cpu time spent up to now is       56.3 secs

     total energy              =    -451.86309371 Ry
     estimated scf accuracy    <      27.25467804 Ry

     iteration #  4     ecut=    40.00 Ry     beta= 0.70
     Davidson diagonalization with overlap
     ethr =  9.87E-03,  avg # of iterations =  3.0

     negative rho (up, down):  4.610E-04 0.000E+00

     total cpu time spent up to now is       68.2 secs

     total energy              =    -452.61160025 Ry
     estimated scf accuracy    <      12.45176202 Ry

     iteration #  5     ecut=    40.00 Ry     beta= 0.70
     Davidson diagonalization with overlap
     ethr =  9.87E-03,  avg # of iterations =  1.3

     negative rho (up, down):  4.406E-04 0.000E+00

     total cpu time spent up to now is       78.8 secs

     total energy              =    -452.99881122 Ry
     estimated scf accuracy    <       2.19750153 Ry

     iteration #  6     ecut=    40.00 Ry     beta= 0.70
     Davidson diagonalization with overlap
     ethr =  8.79E-03,  avg # of iterations =  1.1

     negative rho (up, down):  4.410E-04 0.000E+00

     total cpu time spent up to now is       89.1 secs

     total energy              =    -452.95914910 Ry
     estimated scf accuracy    <       1.39455865 Ry

     iteration #  7     ecut=    40.00 Ry     beta= 0.70
     Davidson diagonalization with overlap
     ethr =  5.58E-03,  avg # of iterations =  1.6

     negative rho (up, down):  4.405E-04 0.000E+00

     total cpu time spent up to now is       99.8 secs

     total energy              =    -452.98234632 Ry
     estimated scf accuracy    <       0.03599649 Ry

     iteration #  8     ecut=    40.00 Ry     beta= 0.70
     Davidson diagonalization with overlap
     ethr =  1.44E-04,  avg # of iterations =  9.8

     negative rho (up, down):  4.410E-04 0.000E+00

     total cpu time spent up to now is      114.0 secs

     total energy              =    -452.98835325 Ry
     estimated scf accuracy    <       0.77766464 Ry

     iteration #  9     ecut=    40.00 Ry     beta= 0.70
     Davidson diagonalization with overlap
     ethr =  1.44E-04,  avg # of iterations =  1.0

     negative rho (up, down):  4.394E-04 0.000E+00

     total cpu time spent up to now is      124.4 secs

     total energy              =    -452.96963931 Ry
     estimated scf accuracy    <       0.56251382 Ry

     iteration # 10     ecut=    40.00 Ry     beta= 0.70
     Davidson diagonalization with overlap
     ethr =  1.44E-04,  avg # of iterations =  1.2

     negative rho (up, down):  4.390E-04 0.000E+00

     total cpu time spent up to now is      134.9 secs

     total energy              =    -452.97501618 Ry
     estimated scf accuracy    <       0.02484530 Ry

     iteration # 11     ecut=    40.00 Ry     beta= 0.70
     Davidson diagonalization with overlap
     ethr =  9.94E-05,  avg # of iterations =  1.1

     negative rho (up, down):  4.438E-04 0.000E+00

     total cpu time spent up to now is      145.3 secs

     total energy              =    -452.96905587 Ry
     estimated scf accuracy    <       0.07908849 Ry

     iteration # 12     ecut=    40.00 Ry     beta= 0.70
     Davidson diagonalization with overlap
     ethr =  9.94E-05,  avg # of iterations =  1.6

     negative rho (up, down):  4.773E-04 0.000E+00

     total cpu time spent up to now is      155.9 secs

     total energy              =    -452.97376871 Ry
     estimated scf accuracy    <       0.30230806 Ry

     iteration # 13     ecut=    40.00 Ry     beta= 0.70
     Davidson diagonalization with overlap
     ethr =  9.94E-05,  avg # of iterations =  2.0

     negative rho (up, down):  4.689E-04 0.000E+00

     total cpu time spent up to now is      167.1 secs

     total energy              =    -452.98334461 Ry
     estimated scf accuracy    <       0.12004082 Ry

     iteration # 14     ecut=    40.00 Ry     beta= 0.70
     Davidson diagonalization with overlap
     ethr =  9.94E-05,  avg # of iterations =  1.0

     negative rho (up, down):  4.705E-04 0.000E+00

     total cpu time spent up to now is      177.4 secs

     total energy              =    -452.97322888 Ry
     estimated scf accuracy    <       0.30848921 Ry

     iteration # 15     ecut=    40.00 Ry     beta= 0.70
     Davidson diagonalization with overlap
     ethr =  9.94E-05,  avg # of iterations =  1.0

     negative rho (up, down):  4.693E-04 0.000E+00

     total cpu time spent up to now is      187.8 secs

     total energy              =    -452.97497655 Ry
     estimated scf accuracy    <       0.12241286 Ry

     iteration # 16     ecut=    40.00 Ry     beta= 0.70
     Davidson diagonalization with overlap
     ethr =  9.94E-05,  avg # of iterations =  1.0

     negative rho (up, down):  4.679E-04 0.000E+00

     total cpu time spent up to now is      198.1 secs

     total energy              =    -452.97132878 Ry
     estimated scf accuracy    <       0.11453022 Ry

     iteration # 17     ecut=    40.00 Ry     beta= 0.70
     Davidson diagonalization with overlap
     ethr =  9.94E-05,  avg # of iterations =  1.0

     negative rho (up, down):  4.677E-04 0.000E+00

     total cpu time spent up to now is      208.5 secs

     total energy              =    -452.97250425 Ry
     estimated scf accuracy    <       0.01285643 Ry

     iteration # 18     ecut=    40.00 Ry     beta= 0.70
     Davidson diagonalization with overlap
     ethr =  5.14E-05,  avg # of iterations =  1.0

     negative rho (up, down):  4.678E-04 0.000E+00

     total cpu time spent up to now is      219.0 secs

     total energy              =    -452.97147217 Ry
     estimated scf accuracy    <       0.01907630 Ry

     iteration # 19     ecut=    40.00 Ry     beta= 0.70
     Davidson diagonalization with overlap
     ethr =  5.14E-05,  avg # of iterations =  1.4

     negative rho (up, down):  4.680E-04 0.000E+00

     total cpu time spent up to now is      229.5 secs

     total energy              =    -452.97201741 Ry
     estimated scf accuracy    <       0.00264109 Ry

     iteration # 20     ecut=    40.00 Ry     beta= 0.70
     Davidson diagonalization with overlap
     ethr =  1.06E-05,  avg # of iterations =  3.1

     negative rho (up, down):  4.681E-04 0.000E+00

     total cpu time spent up to now is      240.4 secs

     total energy              =    -452.97207677 Ry
     estimated scf accuracy    <       0.00001378 Ry

     iteration # 21     ecut=    40.00 Ry     beta= 0.70
     Davidson diagonalization with overlap
     ethr =  5.51E-08,  avg # of iterations =  3.2

     negative rho (up, down):  4.681E-04 0.000E+00

     total cpu time spent up to now is      251.4 secs

     total energy              =    -452.97207680 Ry
     estimated scf accuracy    <       0.00000458 Ry

     iteration # 22     ecut=    40.00 Ry     beta= 0.70
     Davidson diagonalization with overlap
     ethr =  1.83E-08,  avg # of iterations =  1.0

     negative rho (up, down):  4.681E-04 0.000E+00

     total cpu time spent up to now is      261.9 secs

     total energy              =    -452.97207681 Ry
     estimated scf accuracy    <       0.00000083 Ry

     iteration # 23     ecut=    40.00 Ry     beta= 0.70
     Davidson diagonalization with overlap
     ethr =  3.33E-09,  avg # of iterations =  1.0

     negative rho (up, down):  4.681E-04 0.000E+00

     total cpu time spent up to now is      272.3 secs

     total energy              =    -452.97207681 Ry
     estimated scf accuracy    <       0.00000018 Ry

     iteration # 24     ecut=    40.00 Ry     beta= 0.70
     Davidson diagonalization with overlap
     ethr =  7.16E-10,  avg # of iterations =  1.0

     negative rho (up, down):  4.681E-04 0.000E+00

     total cpu time spent up to now is      282.7 secs

     total energy              =    -452.97207682 Ry
     estimated scf accuracy    <       0.00000005 Ry

     iteration # 25     ecut=    40.00 Ry     beta= 0.70
     Davidson diagonalization with overlap
     ethr =  1.96E-10,  avg # of iterations =  1.0

     negative rho (up, down):  4.681E-04 0.000E+00

     total cpu time spent up to now is      293.0 secs

     End of self-consistent calculation

          k = 0.0000 0.0000 0.0000 ( 11841 PWs)   bands (ev):

   -60.2214 -36.5430 -35.9998 -35.9998 -16.1400 -16.1400  -8.0887  -5.9254
    -5.9110  -4.8518  -4.3999  -4.3999  -3.4499  -3.4499  -3.4497  -3.4497
    -3.2856  -3.2856  -3.0733   1.4008   1.8392   2.3478   2.5778   2.5789
     3.1103

     occupation numbers 
     1.0000   1.0000   1.0000   1.0000   1.0000   1.0000   1.0000   1.0000
     1.0000   0.9563  -0.0218  -0.0218  -0.0000  -0.0000  -0.0000  -0.0000
    -0.0000  -0.0000  -0.0000  -0.0000  -0.0000  -0.0000  -0.0000  -0.0000
    -0.0000

          k = 0.0000 0.1283 0.0000 ( 11725 PWs)   bands (ev):

   -60.2190 -36.5398 -36.0261 -36.0062 -16.0440 -16.0439  -7.8014  -5.8117
    -5.8060  -4.7754  -4.5677  -4.1938  -4.0372  -3.9967  -3.9566  -3.5594
    -3.5591  -3.3368  -2.2671   1.6323   2.0944   2.5487   2.7472   2.8028
     3.2835

     occupation numbers 
     1.0000   1.0000   1.0000   1.0000   1.0000   1.0000   1.0000   1.0000
     1.0000   0.8161   0.2200  -0.0173  -0.0027  -0.0014  -0.0007  -0.0000
    -0.0000  -0.0000  -0.0000  -0.0000  -0.0000  -0.0000  -0.0000  -0.0000
    -0.0000

          k = 0.0000 0.2566 0.0000 ( 11723 PWs)   bands (ev):

   -60.2127 -36.5317 -36.0921 -36.0223 -15.7833 -15.7833  -7.0485  -5.5317
    -5.5128  -5.1746  -5.1729  -4.8507  -4.6384  -4.5421  -3.8171  -3.8169
    -3.6194  -3.4632  -1.2931   2.1888   2.7241   3.0449   3.2702   3.4455
     3.8241

     occupation numbers 
     1.0000   1.0000   1.0000   1.0000   1.0000   1.0000   1.0000   1.0000
     1.0000   1.0117   1.0119   0.9548   0.4206   0.1596  -0.0000  -0.0000
    -0.0000  -0.0000  -0.0000  -0.0000  -0.0000  -0.0000  -0.0000  -0.0000
    -0.0000

          k = 0.0000 0.3849 0.0000 ( 11665 PWs)   bands (ev):

   -60.2057 -36.5224 -36.1663 -36.0407 -15.4489 -15.4489  -6.4308  -6.3162
    -6.3045  -5.3074  -5.1446  -4.9564  -4.4675  -4.2810  -4.0824  -4.0820
    -3.6012  -2.8362  -0.2735   2.7897   3.0407   3.4024   3.6021   4.1139
     4.2830

     occupation numbers 
     1.0000   1.0000   1.0000   1.0000   1.0000   1.0000   1.0000   1.0000
     1.0000   1.0021   1.0158   1.0312   0.0325  -0.0315  -0.0050  -0.0050
    -0.0000  -0.0000  -0.0000  -0.0000  -0.0000  -0.0000  -0.0000  -0.0000
    -0.0000

          k = 0.0000 0.5132 0.0000 ( 11600 PWs)   bands (ev):

   -60.2011 -36.5164 -36.2142 -36.0525 -15.2016 -15.2016  -7.0112  -7.0098
    -6.3817  -5.4570  -4.8219  -4.7719  -4.2425  -4.2421  -4.1246  -3.6882
    -3.2052  -2.2021   0.5910   0.8741   3.0813   3.1806   3.5759   3.7461
     4.5404

     occupation numbers 
     1.0000   1.0000   1.0000   1.0000   1.0000   1.0000   1.0000   1.0000
     1.0000   1.0001   0.9108   0.8079  -0.0254  -0.0253  -0.0085  -0.0000
    -0.0000  -0.0000  -0.0000  -0.0000  -0.0000  -0.0000  -0.0000  -0.0000
    -0.0000

          k = 0.1111 0.1925 0.0000 ( 11745 PWs)   bands (ev):

   -60.2146 -36.5341 -36.0699 -36.0198 -15.8652 -15.8652  -7.2641  -5.6140
    -5.6000  -4.8453  -4.8074  -4.7942  -4.6016  -4.4643  -3.8173  -3.8169
    -3.7627  -3.4574  -1.5451   2.0253   2.5353   2.9071   3.0853   3.2364
     3.6436

     occupation numbers 
     1.0000   1.0000   1.0000   1.0000   1.0000   1.0000   1.0000   1.0000
     1.0000   0.9474   0.8845   0.8580   0.3112   0.0288  -0.0000  -0.0000
    -0.0000  -0.0000  -0.0000  -0.0000  -0.0000  -0.0000  -0.0000  -0.0000
    -0.0000

          k = 0.1111 0.3208 0.0000 ( 11716 PWs)   bands (ev):

   -60.2080 -36.5255 -36.1346 -36.0425 -15.5644 -15.5644  -6.4198  -5.8266
    -5.8222  -5.3198  -5.2641  -5.0189  -4.8780  -4.3874  -4.2214  -4.2202
    -3.6615  -2.9632  -0.5749   2.6647   3.2584   3.3485   3.8748   4.0718
     4.3275

     occupation numbers 
     1.0000   1.0000   1.0000   1.0000   1.0000   1.0000   1.0000   1.0000
     1.0000   1.0017   1.0039   1.0346   0.9864  -0.0268  -0.0218  -0.0216
    -0.0000  -0.0000  -0.0000  -0.0000  -0.0000  -0.0000  -0.0000  -0.0000
    -0.0000

          k = 0.1111 0.4491 0.0000 ( 11623 PWs)   bands (ev):

   -60.2021 -36.5178 -36.1905 -36.0626 -15.2651 -15.2651  -6.6717  -6.6698
    -6.1203  -5.3276  -4.9176  -4.8292  -4.5402  -4.5391  -4.2761  -4.1665
    -3.8410  -1.9951   0.4418   1.8337   3.1801   3.5648   3.8783   4.3325
     4.7387

     occupation numbers 
     1.0000   1.0000   1.0000   1.0000   1.0000   1.0000   1.0000   1.0000
     1.0000   1.0015   1.0165   0.9230   0.1555   0.1532  -0.0308  -0.0134
    -0.0001  -0.0000  -0.0000  -0.0000  -0.0000  -0.0000  -0.0000  -0.0000
    -0.0000

          k = 0.1111 0.5774 0.0000 ( 11626 PWs)   bands (ev):

   -60.1998 -36.5148 -36.2125 -36.0705 -15.1354 -15.1354  -6.9993  -6.9983
    -6.1667  -5.4061  -4.7406  -4.7033  -4.6554  -4.6553  -4.0801  -3.9112
    -3.5689  -1.2775   0.3733   1.0205   3.2159   3.2604   4.0629   4.1335
     4.6774

     occupation numbers 
     1.0000   1.0000   1.0000   1.0000   1.0000   1.0000   1.0000   1.0000
     1.0000   1.0004   0.7279   0.6205   0.4730   0.4729  -0.0048  -0.0003
    -0.0000  -0.0000  -0.0000  -0.0000  -0.0000  -0.0000  -0.0000  -0.0000
    -0.0000

          k = 0.2222 0.3849 0.0000 ( 11623 PWs)   bands (ev):

   -60.2026 -36.5184 -36.1704 -36.0775 -15.2914 -15.2914  -6.3592  -6.3569
    -5.4870  -5.3231  -5.2176  -4.9164  -4.9140  -4.8995  -4.8326  -4.1866
    -4.0228  -1.8640   0.4330   2.6830   3.2176   3.8173   3.8330   4.2949
     4.8355

     occupation numbers 
     1.0000   1.0000   1.0000   1.0000   1.0000   1.0000   1.0000   1.0000
     1.0001   1.0016   1.0071   1.0159   1.0145   1.0049   0.9285  -0.0162
    -0.0021  -0.0000  -0.0000  -0.0000  -0.0000  -0.0000  -0.0000  -0.0000
    -0.0000

          k = 0.2222 0.5132 0.0000 ( 11634 PWs)   bands (ev):

   -60.1990 -36.5138 -36.1874 -36.1067 -15.0961 -15.0961  -6.6522  -6.6513
    -5.5473  -5.4093  -5.4076  -5.1881  -4.7215  -4.6640  -4.4924  -4.3189
    -4.0537  -0.6116   0.8363   1.4378   2.9775   3.6619   3.7847   4.6446
     4.7861

     occupation numbers 
     1.0000   1.0000   1.0000   1.0000   1.0000   1.0000   1.0000   1.0000
     1.0000   1.0004   1.0004   1.0101   0.6743   0.4998   0.0666  -0.0352
    -0.0034  -0.0000  -0.0000  -0.0000  -0.0000  -0.0000  -0.0000  -0.0000
    -0.0000

          k = 0.3333 0.5774 0.0000 ( 11634 PWs)   bands (ev):

   -60.1978 -36.5122 -36.1552 -36.1552 -15.0274 -15.0274  -6.2051  -6.2036
    -6.2028  -6.2022  -4.9580  -4.9397  -4.8705  -4.8223  -4.5875  -4.5549
    -4.0185   0.1149   1.2192   1.2602   2.1228   3.7588   4.3471   4.4526
     4.5391

     occupation numbers 
     1.0000   1.0000   1.0000   1.0000   1.0000   1.0000   1.0000   1.0000
     1.0000   1.0000   1.0316   1.0264   0.9787   0.9116   0.2719   0.1888
    -0.0020  -0.0000  -0.0000  -0.0000  -0.0000  -0.0000  -0.0000  -0.0000
    -0.0000

     the Fermi energy is    -4.6641 ev

!    total energy              =    -452.97207681 Ry

     total all-electron energy =     -9223.176588 Ry
     estimated scf accuracy    <          6.7E-09 Ry
     smearing contrib. (-TS)   =      -0.00197562 Ry
     internal energy E=F+TS    =    -452.97010119 Ry

     The total energy is F=E-TS. E is the sum of the following terms:
     one-electron contribution =   -1481.45659976 Ry
     hartree contribution      =     740.15799239 Ry
     xc contribution           =     -31.36245449 Ry
     ewald contribution        =     613.75036080 Ry
     one-center paw contrib.   =    -294.05940013 Ry
      -> PAW hartree energy AE =      82.00590189 Ry
      -> PAW hartree energy PS =     -81.52046701 Ry
      -> PAW xc energy AE      =    -275.73462235 Ry
      -> PAW xc energy PS      =      22.86152462 Ry
      -> total E_H with PAW    =     740.64342727 Ry
      -> total E_XC with PAW   =    -284.23555221 Ry

     convergence has been achieved in  25 iterations

     Writing output data file ./tmp/NbS2.save/

     init_run     :      5.40s CPU      5.71s WALL (       1 calls)
     electrons    :    271.92s CPU    286.38s WALL (       1 calls)

     Called by init_run:
     wfcinit      :      2.68s CPU      2.73s WALL (       1 calls)
     wfcinit:atom :      0.03s CPU      0.03s WALL (      12 calls)
     wfcinit:wfcr :      2.60s CPU      2.64s WALL (      12 calls)
     potinit      :      0.64s CPU      0.69s WALL (       1 calls)
     hinit0       :      1.01s CPU      1.03s WALL (       1 calls)

     Called by electrons:
     c_bands      :    170.63s CPU    172.35s WALL (      25 calls)
     sum_band     :     70.89s CPU     78.03s WALL (      25 calls)
     v_of_rho     :      2.15s CPU      2.21s WALL (      26 calls)
     v_h          :      1.18s CPU      1.21s WALL (      26 calls)
     v_xc         :      0.97s CPU      1.00s WALL (      26 calls)
     newd         :     23.73s CPU     29.33s WALL (      26 calls)
     PAW_pot      :      1.38s CPU      1.38s WALL (      26 calls)
     mix_rho      :      2.68s CPU      2.73s WALL (      25 calls)

     Called by c_bands:
     init_us_2    :      1.46s CPU      1.49s WALL (     612 calls)
     cegterg      :    167.61s CPU    169.25s WALL (     300 calls)

     Called by sum_band:
     sum_band:wei :      0.01s CPU      0.01s WALL (      25 calls)
     sum_band:loo :     32.69s CPU     33.02s WALL (      25 calls)
     sum_band:buf :      0.35s CPU      0.35s WALL (     300 calls)
     sum_band:ini :      0.71s CPU      0.71s WALL (     300 calls)
     sum_band:cal :      3.51s CPU      3.53s WALL (     300 calls)
     sum_band:bec :      0.01s CPU      0.01s WALL (     300 calls)
     addusdens    :     35.77s CPU     42.48s WALL (      25 calls)
     addusd:skk   :      0.08s CPU      0.09s WALL (      50 calls)
     addusd:dgemm :      9.10s CPU     14.55s WALL (      50 calls)
     addusd:qvan2 :     24.72s CPU     24.74s WALL (      50 calls)

     Called by *egterg:
     cdiaghg      :      0.80s CPU      0.81s WALL (    1027 calls)
     cegterg:over :     10.91s CPU     10.93s WALL (     727 calls)
     cegterg:upda :      5.80s CPU      5.82s WALL (     727 calls)
     cegterg:last :     12.39s CPU     12.39s WALL (     446 calls)
     h_psi        :    126.02s CPU    127.60s WALL (    1039 calls)
     s_psi        :      7.51s CPU      7.55s WALL (    1039 calls)
     g_psi        :      0.28s CPU      0.28s WALL (     727 calls)

     Called by h_psi:
     h_psi:calbec :      8.31s CPU      8.35s WALL (    1039 calls)
     vloc_psi     :    109.98s CPU    111.48s WALL (    1039 calls)
     add_vuspsi   :      6.99s CPU      7.00s WALL (    1039 calls)

     General routines
     calbec       :     11.81s CPU     11.88s WALL (    1339 calls)
     fft          :      5.57s CPU      5.72s WALL (     154 calls)
     ffts         :      0.31s CPU      0.32s WALL (      51 calls)
     fftw         :    114.75s CPU    116.27s WALL (   41942 calls)
     interpolate  :      1.17s CPU      1.21s WALL (      26 calls)

     Parallel routines
     fft_scatt_xy :     18.28s CPU     18.51s WALL (   42147 calls)
     fft_scatt_yz :     11.79s CPU     12.09s WALL (   42147 calls)

     PAW routines
     PAW_pot      :      1.38s CPU      1.38s WALL (      26 calls)
     PAW_symme    :      0.01s CPU      0.01s WALL (      51 calls)

     PWSCF        :   4m38.40s CPU   4m53.62s WALL


   This run was terminated on:  16:18:45  10Jun2021            

=------------------------------------------------------------------------------=
   JOB DONE.
=------------------------------------------------------------------------------=
