
     Program PWSCF v.6.6 starts on 15Jun2021 at  2:36:44 

     This program is part of the open-source Quantum ESPRESSO suite
     for quantum simulation of materials; please cite
         "P. Giannozzi et al., J. Phys.:Condens. Matter 21 395502 (2009);
         "P. Giannozzi et al., J. Phys.:Condens. Matter 29 465901 (2017);
          URL http://www.quantum-espresso.org", 
     in publications or presentations arising from this work. More details at
     http://www.quantum-espresso.org/quote

     Parallel version (MPI), running on     2 processors

     MPI processes distributed on     1 nodes
     R & G space division:  proc/nbgrp/npool/nimage =       2
     Fft bands division:     nmany     =       1
     Waiting for input...
     Reading input from standard input

     Current dimensions of program PWSCF are:
     Max number of different atomic species (ntypx) = 10
     Max number of k-points (npk) =  40000
     Max angular momentum in pseudopotentials (lmaxx) =  3

     Atomic positions and unit cell read from directory:
     ./tmp/NbS2_bi.save/
     Atomic positions from file used, from input discarded

     file Nb.pz-spn-kjpaw_psl.1.0.0.UPF: wavefunction(s)  4S 4P 4D renormalized
     file S.pz-n-kjpaw_psl.0.1.UPF: wavefunction(s)  3P renormalized

     Subspace diagonalization in iterative solution of the eigenvalue problem:
     a serial algorithm will be used


     Parallelization info
     --------------------
     sticks:   dense  smooth     PW     G-vecs:    dense   smooth      PW
     Min         534     216     61                85552    21653    3606
     Max         535     217     66                85569    21664    3613
     Sum        1069     433    127               171121    43317    7219



     bravais-lattice index     =            4
     lattice parameter (alat)  =       6.2187  a.u.
     unit-cell volume          =    1265.7886 (a.u.)^3
     number of atoms/cell      =            6
     number of atomic types    =            2
     number of electrons       =        50.00
     number of Kohn-Sham states=           60
     kinetic-energy cutoff     =      40.0000  Ry
     charge density cutoff     =     400.0000  Ry
     Exchange-correlation= SLA PZ NOGX NOGC
                           (   1   1   0   0   0   0   0)

     celldm(1)=   6.218718  celldm(2)=   0.000000  celldm(3)=   6.077543
     celldm(4)=   0.000000  celldm(5)=   0.000000  celldm(6)=   0.000000

     crystal axes: (cart. coord. in units of alat)
               a(1) = (   1.000000   0.000000   0.000000 )  
               a(2) = (  -0.500000   0.866025   0.000000 )  
               a(3) = (   0.000000   0.000000   6.077543 )  

     reciprocal axes: (cart. coord. in units 2 pi/alat)
               b(1) = (  1.000000  0.577350 -0.000000 )  
               b(2) = (  0.000000  1.154701  0.000000 )  
               b(3) = (  0.000000 -0.000000  0.164540 )  


     PseudoPot. # 1 for Nb read from file:
     ../Nb.pz-spn-kjpaw_psl.1.0.0.UPF
     MD5 check sum: 38c2e04b3cc915696ca8dc9f46a23270
     Pseudo is Projector augmented-wave + core cor, Zval = 13.0
     Generated using "atomic" code by A. Dal Corso v.6.2.2
     Shape of augmentation charge: PSQ
     Using radial grid of 1227 points,  6 beta functions with: 
                l(1) =   0
                l(2) =   0
                l(3) =   1
                l(4) =   1
                l(5) =   2
                l(6) =   2
     Q(r) pseudized with 0 coefficients 


     PseudoPot. # 2 for S  read from file:
     ../S.pz-n-kjpaw_psl.0.1.UPF
     MD5 check sum: c0b1682311cf098e03f7841691d9a679
     Pseudo is Projector augmented-wave + core cor, Zval =  6.0
     Generated using "atomic" code by A. Dal Corso v.5.0.2 svn rev. 9415
     Shape of augmentation charge: PSQ
     Using radial grid of 1151 points,  4 beta functions with: 
                l(1) =   0
                l(2) =   0
                l(3) =   1
                l(4) =   1
     Q(r) pseudized with 0 coefficients 


     atomic species   valence    mass     pseudopotential
        Nb            13.00    92.90600     Nb( 1.00)
        S              6.00    32.06500     S ( 1.00)

     No symmetry found


                                    s                        frac. trans.

      isym =  1     identity                                     

 cryst.   s( 1) = (     1          0          0      )
                  (     0          1          0      )
                  (     0          0          1      )

 cart.    s( 1) = (  1.0000000  0.0000000  0.0000000 )
                  (  0.0000000  1.0000000  0.0000000 )
                  (  0.0000000  0.0000000  1.0000000 )


     point group C_1 (1)    
     there are  1 classes
     the character table:

       E    
A      1.00

     the symmetry operations in each class and the name of the first element:

     E        1
          identity                                               

   Cartesian axes

     site n.     atom                  positions (alat units)
         1           S   tau(   1) = (  -0.0001201   0.5764567   1.3611707  )
         2           Nb  tau(   2) = (  -0.0003661  -0.0005878   0.8937920  )
         3           S   tau(   3) = (  -0.0005235   0.5771695   0.4201157  )
         4           S   tau(   4) = (   0.4990676   0.2881397   2.1405952  )
         5           Nb  tau(   5) = (  -0.0010239  -0.0006186   2.6079745  )
         6           S   tau(   6) = (   0.4990749   0.2881215   3.0816530  )

   Crystallographic axes

     site n.     atom                  positions (cryst. coord.)
         1           S   tau(   1) = (  0.3326973  0.6656349  0.2239673  )
         2           Nb  tau(   2) = ( -0.0007055 -0.0006788  0.1470647  )
         3           S   tau(   3) = (  0.3327055  0.6664579  0.0691259  )
         4           S   tau(   4) = (  0.6654252  0.3327151  0.3522139  )
         5           Nb  tau(   5) = ( -0.0013810 -0.0007143  0.4291166  )
         6           S   tau(   6) = (  0.6654219  0.3326941  0.5070557  )

     number of k points=    81  Methfessel-Paxton smearing, width (Ry)=  0.0200
                       cart. coord. in units 2pi/alat
        k(    1) = (   0.0000000   0.0000000   0.0822701), wk =   0.0246914
        k(    2) = (   0.0000000   0.0192450   0.0822701), wk =   0.0246914
        k(    3) = (   0.0000000   0.0384900   0.0822701), wk =   0.0246914
        k(    4) = (   0.0000000   0.0577350   0.0822701), wk =   0.0246914
        k(    5) = (   0.0000000   0.0769800   0.0822701), wk =   0.0246914
        k(    6) = (   0.0000000   0.0962250   0.0822701), wk =   0.0246914
        k(    7) = (   0.0000000   0.1154701   0.0822701), wk =   0.0246914
        k(    8) = (   0.0000000   0.1347151   0.0822701), wk =   0.0246914
        k(    9) = (   0.0000000   0.1539601   0.0822701), wk =   0.0246914
        k(   10) = (   0.0000000   0.1732051   0.0822701), wk =   0.0246914
        k(   11) = (   0.0000000   0.1924501   0.0822701), wk =   0.0246914
        k(   12) = (   0.0000000   0.2116951   0.0822701), wk =   0.0246914
        k(   13) = (   0.0000000   0.2309401   0.0822701), wk =   0.0246914
        k(   14) = (   0.0000000   0.2501851   0.0822701), wk =   0.0246914
        k(   15) = (   0.0000000   0.2694301   0.0822701), wk =   0.0246914
        k(   16) = (   0.0000000   0.2886751   0.0822701), wk =   0.0246914
        k(   17) = (   0.0000000   0.3079201   0.0822701), wk =   0.0246914
        k(   18) = (   0.0000000   0.3271652   0.0822701), wk =   0.0246914
        k(   19) = (   0.0000000   0.3464102   0.0822701), wk =   0.0246914
        k(   20) = (   0.0000000   0.3656552   0.0822701), wk =   0.0246914
        k(   21) = (   0.0000000   0.3849002   0.0822701), wk =   0.0246914
        k(   22) = (   0.0000000   0.4041452   0.0822701), wk =   0.0246914
        k(   23) = (   0.0000000   0.4233902   0.0822701), wk =   0.0246914
        k(   24) = (   0.0000000   0.4426352   0.0822701), wk =   0.0246914
        k(   25) = (   0.0000000   0.4618802   0.0822701), wk =   0.0246914
        k(   26) = (   0.0000000   0.4811252   0.0822701), wk =   0.0246914
        k(   27) = (   0.0000000   0.5003702   0.0822701), wk =   0.0246914
        k(   28) = (   0.0000000   0.5196152   0.0822701), wk =   0.0246914
        k(   29) = (   0.0000000   0.5388603   0.0822701), wk =   0.0246914
        k(   30) = (   0.0000000   0.5581053   0.0822701), wk =   0.0246914
        k(   31) = (   0.0000000   0.5773503   0.0822701), wk =   0.0246914
        k(   32) = (   0.0222220   0.5773499   0.0822701), wk =   0.0246914
        k(   33) = (   0.0444440   0.5773495   0.0822701), wk =   0.0246914
        k(   34) = (   0.0666660   0.5773491   0.0822701), wk =   0.0246914
        k(   35) = (   0.0888880   0.5773487   0.0822701), wk =   0.0246914
        k(   36) = (   0.1111100   0.5773483   0.0822701), wk =   0.0246914
        k(   37) = (   0.1333320   0.5773480   0.0822701), wk =   0.0246914
        k(   38) = (   0.1555540   0.5773476   0.0822701), wk =   0.0246914
        k(   39) = (   0.1777760   0.5773472   0.0822701), wk =   0.0246914
        k(   40) = (   0.1999980   0.5773468   0.0822701), wk =   0.0246914
        k(   41) = (   0.2222200   0.5773464   0.0822701), wk =   0.0246914
        k(   42) = (   0.2444420   0.5773460   0.0822701), wk =   0.0246914
        k(   43) = (   0.2666640   0.5773457   0.0822701), wk =   0.0246914
        k(   44) = (   0.2888860   0.5773453   0.0822701), wk =   0.0246914
        k(   45) = (   0.3111080   0.5773449   0.0822701), wk =   0.0246914
        k(   46) = (   0.3333300   0.5773445   0.0822701), wk =   0.0246914
        k(   47) = (   0.3238063   0.5608489   0.0822701), wk =   0.0246914
        k(   48) = (   0.3142826   0.5443534   0.0822701), wk =   0.0246914
        k(   49) = (   0.3047589   0.5278578   0.0822701), wk =   0.0246914
        k(   50) = (   0.2952351   0.5113623   0.0822701), wk =   0.0246914
        k(   51) = (   0.2857114   0.4948667   0.0822701), wk =   0.0246914
        k(   52) = (   0.2761877   0.4783712   0.0822701), wk =   0.0246914
        k(   53) = (   0.2666640   0.4618756   0.0822701), wk =   0.0246914
        k(   54) = (   0.2571403   0.4453800   0.0822701), wk =   0.0246914
        k(   55) = (   0.2476166   0.4288845   0.0822701), wk =   0.0246914
        k(   56) = (   0.2380929   0.4123889   0.0822701), wk =   0.0246914
        k(   57) = (   0.2285691   0.3958934   0.0822701), wk =   0.0246914
        k(   58) = (   0.2190454   0.3793978   0.0822701), wk =   0.0246914
        k(   59) = (   0.2095217   0.3629023   0.0822701), wk =   0.0246914
        k(   60) = (   0.1999980   0.3464067   0.0822701), wk =   0.0246914
        k(   61) = (   0.1904743   0.3299111   0.0822701), wk =   0.0246914
        k(   62) = (   0.1809506   0.3134156   0.0822701), wk =   0.0246914
        k(   63) = (   0.1714269   0.2969200   0.0822701), wk =   0.0246914
        k(   64) = (   0.1619031   0.2804245   0.0822701), wk =   0.0246914
        k(   65) = (   0.1523794   0.2639289   0.0822701), wk =   0.0246914
        k(   66) = (   0.1428557   0.2474334   0.0822701), wk =   0.0246914
        k(   67) = (   0.1333320   0.2309378   0.0822701), wk =   0.0246914
        k(   68) = (   0.1238083   0.2144422   0.0822701), wk =   0.0246914
        k(   69) = (   0.1142846   0.1979467   0.0822701), wk =   0.0246914
        k(   70) = (   0.1047609   0.1814511   0.0822701), wk =   0.0246914
        k(   71) = (   0.0952371   0.1649556   0.0822701), wk =   0.0246914
        k(   72) = (   0.0857134   0.1484600   0.0822701), wk =   0.0246914
        k(   73) = (   0.0761897   0.1319645   0.0822701), wk =   0.0246914
        k(   74) = (   0.0666660   0.1154689   0.0822701), wk =   0.0246914
        k(   75) = (   0.0571423   0.0989733   0.0822701), wk =   0.0246914
        k(   76) = (   0.0476186   0.0824778   0.0822701), wk =   0.0246914
        k(   77) = (   0.0380949   0.0659822   0.0822701), wk =   0.0246914
        k(   78) = (   0.0285711   0.0494867   0.0822701), wk =   0.0246914
        k(   79) = (   0.0190474   0.0329911   0.0822701), wk =   0.0246914
        k(   80) = (   0.0095237   0.0164956   0.0822701), wk =   0.0246914
        k(   81) = (   0.0000000   0.0000000   0.0822701), wk =   0.0246914

                       cryst. coord.
        k(    1) = (   0.0000000   0.0000000   0.5000000), wk =   0.0246914
        k(    2) = (   0.0000000   0.0166667   0.5000000), wk =   0.0246914
        k(    3) = (   0.0000000   0.0333333   0.5000000), wk =   0.0246914
        k(    4) = (   0.0000000   0.0500000   0.5000000), wk =   0.0246914
        k(    5) = (   0.0000000   0.0666667   0.5000000), wk =   0.0246914
        k(    6) = (   0.0000000   0.0833333   0.5000000), wk =   0.0246914
        k(    7) = (   0.0000000   0.1000000   0.5000000), wk =   0.0246914
        k(    8) = (   0.0000000   0.1166667   0.5000000), wk =   0.0246914
        k(    9) = (   0.0000000   0.1333333   0.5000000), wk =   0.0246914
        k(   10) = (   0.0000000   0.1500000   0.5000000), wk =   0.0246914
        k(   11) = (   0.0000000   0.1666667   0.5000000), wk =   0.0246914
        k(   12) = (   0.0000000   0.1833333   0.5000000), wk =   0.0246914
        k(   13) = (   0.0000000   0.2000000   0.5000000), wk =   0.0246914
        k(   14) = (   0.0000000   0.2166667   0.5000000), wk =   0.0246914
        k(   15) = (   0.0000000   0.2333333   0.5000000), wk =   0.0246914
        k(   16) = (   0.0000000   0.2500000   0.5000000), wk =   0.0246914
        k(   17) = (   0.0000000   0.2666667   0.5000000), wk =   0.0246914
        k(   18) = (   0.0000000   0.2833333   0.5000000), wk =   0.0246914
        k(   19) = (   0.0000000   0.3000000   0.5000000), wk =   0.0246914
        k(   20) = (   0.0000000   0.3166667   0.5000000), wk =   0.0246914
        k(   21) = (   0.0000000   0.3333333   0.5000000), wk =   0.0246914
        k(   22) = (   0.0000000   0.3500000   0.5000000), wk =   0.0246914
        k(   23) = (   0.0000000   0.3666667   0.5000000), wk =   0.0246914
        k(   24) = (   0.0000000   0.3833333   0.5000000), wk =   0.0246914
        k(   25) = (   0.0000000   0.4000000   0.5000000), wk =   0.0246914
        k(   26) = (   0.0000000   0.4166667   0.5000000), wk =   0.0246914
        k(   27) = (   0.0000000   0.4333333   0.5000000), wk =   0.0246914
        k(   28) = (   0.0000000   0.4500000   0.5000000), wk =   0.0246914
        k(   29) = (   0.0000000   0.4666667   0.5000000), wk =   0.0246914
        k(   30) = (   0.0000000   0.4833333   0.5000000), wk =   0.0246914
        k(   31) = (   0.0000000   0.5000000   0.5000000), wk =   0.0246914
        k(   32) = (   0.0222220   0.4888887   0.5000000), wk =   0.0246914
        k(   33) = (   0.0444440   0.4777773   0.5000000), wk =   0.0246914
        k(   34) = (   0.0666660   0.4666660   0.5000000), wk =   0.0246914
        k(   35) = (   0.0888880   0.4555547   0.5000000), wk =   0.0246914
        k(   36) = (   0.1111100   0.4444433   0.5000000), wk =   0.0246914
        k(   37) = (   0.1333320   0.4333320   0.5000000), wk =   0.0246914
        k(   38) = (   0.1555540   0.4222207   0.5000000), wk =   0.0246914
        k(   39) = (   0.1777760   0.4111093   0.5000000), wk =   0.0246914
        k(   40) = (   0.1999980   0.3999980   0.5000000), wk =   0.0246914
        k(   41) = (   0.2222200   0.3888867   0.5000000), wk =   0.0246914
        k(   42) = (   0.2444420   0.3777753   0.5000000), wk =   0.0246914
        k(   43) = (   0.2666640   0.3666640   0.5000000), wk =   0.0246914
        k(   44) = (   0.2888860   0.3555527   0.5000000), wk =   0.0246914
        k(   45) = (   0.3111080   0.3444413   0.5000000), wk =   0.0246914
        k(   46) = (   0.3333300   0.3333300   0.5000000), wk =   0.0246914
        k(   47) = (   0.3238063   0.3238063   0.5000000), wk =   0.0246914
        k(   48) = (   0.3142826   0.3142826   0.5000000), wk =   0.0246914
        k(   49) = (   0.3047589   0.3047589   0.5000000), wk =   0.0246914
        k(   50) = (   0.2952351   0.2952351   0.5000000), wk =   0.0246914
        k(   51) = (   0.2857114   0.2857114   0.5000000), wk =   0.0246914
        k(   52) = (   0.2761877   0.2761877   0.5000000), wk =   0.0246914
        k(   53) = (   0.2666640   0.2666640   0.5000000), wk =   0.0246914
        k(   54) = (   0.2571403   0.2571403   0.5000000), wk =   0.0246914
        k(   55) = (   0.2476166   0.2476166   0.5000000), wk =   0.0246914
        k(   56) = (   0.2380929   0.2380929   0.5000000), wk =   0.0246914
        k(   57) = (   0.2285691   0.2285691   0.5000000), wk =   0.0246914
        k(   58) = (   0.2190454   0.2190454   0.5000000), wk =   0.0246914
        k(   59) = (   0.2095217   0.2095217   0.5000000), wk =   0.0246914
        k(   60) = (   0.1999980   0.1999980   0.5000000), wk =   0.0246914
        k(   61) = (   0.1904743   0.1904743   0.5000000), wk =   0.0246914
        k(   62) = (   0.1809506   0.1809506   0.5000000), wk =   0.0246914
        k(   63) = (   0.1714269   0.1714269   0.5000000), wk =   0.0246914
        k(   64) = (   0.1619031   0.1619031   0.5000000), wk =   0.0246914
        k(   65) = (   0.1523794   0.1523794   0.5000000), wk =   0.0246914
        k(   66) = (   0.1428557   0.1428557   0.5000000), wk =   0.0246914
        k(   67) = (   0.1333320   0.1333320   0.5000000), wk =   0.0246914
        k(   68) = (   0.1238083   0.1238083   0.5000000), wk =   0.0246914
        k(   69) = (   0.1142846   0.1142846   0.5000000), wk =   0.0246914
        k(   70) = (   0.1047609   0.1047609   0.5000000), wk =   0.0246914
        k(   71) = (   0.0952371   0.0952371   0.5000000), wk =   0.0246914
        k(   72) = (   0.0857134   0.0857134   0.5000000), wk =   0.0246914
        k(   73) = (   0.0761897   0.0761897   0.5000000), wk =   0.0246914
        k(   74) = (   0.0666660   0.0666660   0.5000000), wk =   0.0246914
        k(   75) = (   0.0571423   0.0571423   0.5000000), wk =   0.0246914
        k(   76) = (   0.0476186   0.0476186   0.5000000), wk =   0.0246914
        k(   77) = (   0.0380949   0.0380949   0.5000000), wk =   0.0246914
        k(   78) = (   0.0285711   0.0285711   0.5000000), wk =   0.0246914
        k(   79) = (   0.0190474   0.0190474   0.5000000), wk =   0.0246914
        k(   80) = (   0.0095237   0.0095237   0.5000000), wk =   0.0246914
        k(   81) = (   0.0000000   0.0000000   0.5000000), wk =   0.0246914

     Dense  grid:   171121 G-vectors     FFT dimensions: (  40,  40, 243)

     Smooth grid:    43317 G-vectors     FFT dimensions: (  25,  25, 160)

     Dynamical RAM for                 wfc:       2.48 MB

     Dynamical RAM for     wfc (w. buffer):       2.48 MB

     Dynamical RAM for           str. fact:       2.61 MB

     Dynamical RAM for           local pot:       0.00 MB

     Dynamical RAM for          nlocal pot:       2.81 MB

     Dynamical RAM for                qrad:       3.21 MB

     Dynamical RAM for          rho,v,vnew:       8.38 MB

     Dynamical RAM for           G-vectors:       5.06 MB

     Dynamical RAM for          h,s,v(r/c):       0.66 MB

     Dynamical RAM for          <psi|beta>:       0.06 MB

     Dynamical RAM for                 psi:       4.95 MB

     Dynamical RAM for                hpsi:       4.95 MB

     Dynamical RAM for                spsi:       4.95 MB

     Dynamical RAM for      wfcinit/wfcrot:       5.03 MB

     Dynamical RAM for           addusdens:     248.03 MB

     Estimated static dynamical RAM per process >      35.91 MB

     Estimated max dynamical RAM per process >     283.94 MB

     Estimated total dynamical RAM >     567.88 MB

     The potential is recalculated from file :
     ./tmp/NbS2_bi.save/charge-density


     negative rho (up, down):  1.850E-04 0.000E+00
     Starting wfcs are   42 randomized atomic wfcs +   18 random wfcs
     Checking if some PAW data can be deallocated... 

     Band Structure Calculation
     Davidson diagonalization with overlap

     Computing kpt #:     1  of    81
     total cpu time spent up to now is       14.8 secs

     Computing kpt #:     2  of    81
     total cpu time spent up to now is       26.6 secs

     Computing kpt #:     3  of    81
     total cpu time spent up to now is       38.6 secs

     Computing kpt #:     4  of    81
     total cpu time spent up to now is       50.1 secs

     Computing kpt #:     5  of    81
     total cpu time spent up to now is       61.4 secs

     Computing kpt #:     6  of    81
     total cpu time spent up to now is       71.9 secs

     Computing kpt #:     7  of    81
     total cpu time spent up to now is       82.5 secs

     Computing kpt #:     8  of    81
     total cpu time spent up to now is       94.0 secs

     Computing kpt #:     9  of    81
     total cpu time spent up to now is      105.1 secs

     Computing kpt #:    10  of    81
     total cpu time spent up to now is      115.3 secs

     Computing kpt #:    11  of    81
     total cpu time spent up to now is      125.5 secs

     Computing kpt #:    12  of    81
     total cpu time spent up to now is      138.1 secs

     Computing kpt #:    13  of    81
     total cpu time spent up to now is      149.7 secs

     Computing kpt #:    14  of    81
     total cpu time spent up to now is      160.0 secs

     Computing kpt #:    15  of    81
     total cpu time spent up to now is      170.0 secs

     Computing kpt #:    16  of    81
     total cpu time spent up to now is      180.0 secs

     Computing kpt #:    17  of    81
     total cpu time spent up to now is      190.1 secs

     Computing kpt #:    18  of    81
     total cpu time spent up to now is      199.4 secs

     Computing kpt #:    19  of    81
     total cpu time spent up to now is      208.7 secs

     Computing kpt #:    20  of    81
     total cpu time spent up to now is      218.1 secs

     Computing kpt #:    21  of    81
     total cpu time spent up to now is      227.5 secs

     Computing kpt #:    22  of    81
     total cpu time spent up to now is      236.9 secs

     Computing kpt #:    23  of    81
     total cpu time spent up to now is      246.9 secs

     Computing kpt #:    24  of    81
     total cpu time spent up to now is      257.2 secs

     Computing kpt #:    25  of    81
     total cpu time spent up to now is      270.1 secs

     Computing kpt #:    26  of    81
     total cpu time spent up to now is      281.5 secs

     Computing kpt #:    27  of    81
     total cpu time spent up to now is      292.0 secs

     Computing kpt #:    28  of    81
     total cpu time spent up to now is      303.6 secs

     Computing kpt #:    29  of    81
     total cpu time spent up to now is      314.0 secs

     Computing kpt #:    30  of    81
     total cpu time spent up to now is      325.2 secs

     Computing kpt #:    31  of    81
     total cpu time spent up to now is      335.5 secs

     Computing kpt #:    32  of    81
     total cpu time spent up to now is      346.5 secs

     Computing kpt #:    33  of    81
     total cpu time spent up to now is      357.8 secs

     Computing kpt #:    34  of    81
     total cpu time spent up to now is      367.9 secs

     Computing kpt #:    35  of    81
     total cpu time spent up to now is      377.3 secs

     Computing kpt #:    36  of    81
     total cpu time spent up to now is      386.7 secs

     Computing kpt #:    37  of    81
     total cpu time spent up to now is      396.7 secs

     Computing kpt #:    38  of    81
     total cpu time spent up to now is      406.1 secs

     Computing kpt #:    39  of    81
     total cpu time spent up to now is      417.2 secs

     Computing kpt #:    40  of    81
     total cpu time spent up to now is      427.5 secs

     Computing kpt #:    41  of    81
     total cpu time spent up to now is      437.5 secs

     Computing kpt #:    42  of    81
     total cpu time spent up to now is      446.8 secs

     Computing kpt #:    43  of    81
     total cpu time spent up to now is      456.9 secs

     Computing kpt #:    44  of    81
     total cpu time spent up to now is      466.1 secs

     Computing kpt #:    45  of    81
     total cpu time spent up to now is      475.4 secs

     Computing kpt #:    46  of    81
     total cpu time spent up to now is      484.6 secs

     Computing kpt #:    47  of    81
     total cpu time spent up to now is      493.9 secs

     Computing kpt #:    48  of    81
     total cpu time spent up to now is      503.3 secs

     Computing kpt #:    49  of    81
     total cpu time spent up to now is      512.4 secs

     Computing kpt #:    50  of    81
     total cpu time spent up to now is      522.5 secs

     Computing kpt #:    51  of    81
     total cpu time spent up to now is      531.7 secs

     Computing kpt #:    52  of    81
     total cpu time spent up to now is      541.7 secs

     Computing kpt #:    53  of    81
     total cpu time spent up to now is      551.1 secs

     Computing kpt #:    54  of    81
     total cpu time spent up to now is      560.3 secs

     Computing kpt #:    55  of    81
     total cpu time spent up to now is      569.6 secs

     Computing kpt #:    56  of    81
     total cpu time spent up to now is      579.0 secs

     Computing kpt #:    57  of    81
     total cpu time spent up to now is      589.1 secs

     Computing kpt #:    58  of    81
     total cpu time spent up to now is      599.1 secs

     Computing kpt #:    59  of    81
     total cpu time spent up to now is      609.2 secs

     Computing kpt #:    60  of    81
     total cpu time spent up to now is      619.1 secs

     Computing kpt #:    61  of    81
     total cpu time spent up to now is      630.9 secs

     Computing kpt #:    62  of    81
     total cpu time spent up to now is      642.1 secs

     Computing kpt #:    63  of    81
     total cpu time spent up to now is      652.1 secs

     Computing kpt #:    64  of    81
     total cpu time spent up to now is      661.9 secs

     Computing kpt #:    65  of    81
     total cpu time spent up to now is      671.1 secs

     Computing kpt #:    66  of    81
     total cpu time spent up to now is      680.3 secs

     Computing kpt #:    67  of    81
     total cpu time spent up to now is      689.5 secs

     Computing kpt #:    68  of    81
     total cpu time spent up to now is      698.9 secs

     Computing kpt #:    69  of    81
     total cpu time spent up to now is      708.1 secs

     Computing kpt #:    70  of    81
     total cpu time spent up to now is      717.5 secs

     Computing kpt #:    71  of    81
     total cpu time spent up to now is      726.9 secs

     Computing kpt #:    72  of    81
     total cpu time spent up to now is      736.3 secs

     Computing kpt #:    73  of    81
     total cpu time spent up to now is      745.6 secs

     Computing kpt #:    74  of    81
     total cpu time spent up to now is      755.9 secs

     Computing kpt #:    75  of    81
     total cpu time spent up to now is      767.3 secs

     Computing kpt #:    76  of    81
     total cpu time spent up to now is      778.8 secs

     Computing kpt #:    77  of    81
     total cpu time spent up to now is      790.9 secs

     Computing kpt #:    78  of    81
     total cpu time spent up to now is      803.0 secs

     Computing kpt #:    79  of    81
     total cpu time spent up to now is      815.2 secs

     Computing kpt #:    80  of    81
     total cpu time spent up to now is      826.9 secs

     Computing kpt #:    81  of    81
     total cpu time spent up to now is      839.2 secs

     ethr =  2.00E-11,  avg # of iterations = 50.1

     total cpu time spent up to now is      839.2 secs

     End of band structure calculation

          k = 0.0000 0.0000 0.0823 (  5416 PWs)   bands (ev):

   -51.5096 -51.5093 -27.7340 -27.7335 -27.5093 -27.5090 -27.5089 -27.5087
   -10.7724 -10.3488  -9.3353  -8.8860  -2.6528  -1.6559   0.7243   0.7244
     0.7783   0.7788   1.1122   1.8679   1.8691   1.8955   1.8960   2.5365
     3.8372   4.7264   6.0349   6.0378   6.2981   6.3001   6.4203   6.4220
     6.5200   6.5210   8.5270   8.5520   8.9779   9.4631  10.9329  11.2731
    11.7068  13.0761  13.5611  13.5629  13.6136  13.6151  14.8702  15.1645
    15.3973  15.3992  15.8952  16.2725  16.2746  16.6585  17.9624  17.9669
    18.0761  18.8951  18.9433  19.0018

          k = 0.0000 0.0192 0.0823 (  5418 PWs)   bands (ev):

   -51.5095 -51.5092 -27.7338 -27.7332 -27.5105 -27.5100 -27.5093 -27.5091
   -10.7686 -10.3450  -9.3338  -8.8852  -2.6485  -1.6516   0.7134   0.7279
     0.7680   0.7826   1.0982   1.8498   1.8608   1.8903   1.9043   2.5464
     3.8351   4.7112   6.0412   6.0438   6.2931   6.3068   6.4144   6.4187
     6.5122   6.5198   8.5469   8.5688   8.9863   9.4701  10.9421  11.2890
    11.7247  13.0789  13.5340  13.5680  13.6106  13.6321  14.8776  15.1808
    15.3528  15.3955  15.8888  16.2472  16.2739  16.6585  17.9490  17.9699
    18.1138  18.8922  18.9408  18.9945

          k = 0.0000 0.0385 0.0823 (  5416 PWs)   bands (ev):

   -51.5092 -51.5088 -27.7330 -27.7324 -27.5143 -27.5138 -27.5101 -27.5099
   -10.7572 -10.3336  -9.3292  -8.8828  -2.6357  -1.6387   0.6808   0.7372
     0.7384   0.7947   1.0584   1.7996   1.8380   1.8733   1.9262   2.5724
     3.8288   4.6671   6.0589   6.0604   6.2779   6.3266   6.3966   6.4104
     6.4888   6.5195   8.6054   8.6177   9.0124   9.4911  10.9679  11.3375
    11.7770  13.0857  13.4651  13.5898  13.5919  13.6814  14.8938  15.2209
    15.2390  15.3860  15.8599  16.1851  16.2755  16.6513  17.8953  17.9887
    18.2261  18.8244  18.9665  19.0666

          k = 0.0000 0.0577 0.0823 (  5428 PWs)   bands (ev):

   -51.5086 -51.5082 -27.7317 -27.7311 -27.5205 -27.5200 -27.5115 -27.5113
   -10.7384 -10.3148  -9.3215  -8.8788  -2.6145  -1.6175   0.6277   0.6875
     0.7556   0.8146   0.9977   1.7253   1.8021   1.8447   1.9554   2.6067
     3.8176   4.5981   6.0796   6.0861   6.2547   6.3539   6.3649   6.4024
     6.4615   6.5219   8.6941   8.6994   9.0590   9.5263  11.0063  11.4197
    11.8605  13.0901  13.3739  13.5588  13.6326  13.7560  14.8815  15.1023
    15.2834  15.3719  15.7844  16.1314  16.2781  16.6253  17.8095  18.0158
    18.3974  18.7592  18.9188  19.1463

          k = 0.0000 0.0770 0.0823 (  5426 PWs)   bands (ev):

   -51.5077 -51.5074 -27.7298 -27.7293 -27.5292 -27.5287 -27.5134 -27.5132
   -10.7122 -10.2886  -9.3108  -8.8732  -2.5854  -1.5882   0.5557   0.6210
     0.7794   0.8422   0.9216   1.6340   1.7548   1.8048   1.9858   2.6419
     3.8006   4.5092   6.0956   6.1134   6.2262   6.3159   6.3741   6.4069
     6.4473   6.5352   8.7893   8.8238   9.1319   9.5764  11.0535  11.5345
    11.9694  13.0732  13.2878  13.5197  13.6974  13.8534  14.7458  15.0668
    15.3297  15.3553  15.6695  16.1122  16.2819  16.5767  17.6999  18.0432
    18.5936  18.7045  18.8555  19.0525

          k = 0.0000 0.0962 0.0823 (  5416 PWs)   bands (ev):

   -51.5067 -51.5063 -27.7275 -27.7270 -27.5401 -27.5396 -27.5158 -27.5156
   -10.6788 -10.2553  -9.2971  -8.8661  -2.5488  -1.5516   0.4671   0.5404
     0.8092   0.8342   0.8773   1.5308   1.6981   1.7548   2.0116   2.6726
     3.7765   4.4053   6.1008   6.1303   6.1928   6.2550   6.3838   6.4232
     6.4568   6.5733   8.8908   8.9719   9.2399   9.6431  11.1072  11.6773
    12.0953  13.0044  13.2425  13.4857  13.7839  13.9714  14.5352  15.0722
    15.3167  15.3388  15.5964  16.1128  16.2871  16.5103  17.5749  18.0567
    18.6203  18.7902  18.7974  18.9261

          k = 0.0000 0.1155 0.0823 (  5414 PWs)   bands (ev):

   -51.5054 -51.5051 -27.7248 -27.7242 -27.5532 -27.5527 -27.5187 -27.5185
   -10.6385 -10.2151  -9.2806  -8.8576  -2.5055  -1.5084   0.3646   0.4485
     0.7390   0.8442   0.9193   1.4194   1.6342   1.6960   2.0286   2.6954
     3.7438   4.2908   6.0941   6.1279   6.1471   6.2022   6.3833   6.4565
     6.4897   6.6381   8.9885   9.1347   9.3891   9.7302  11.1669  11.8383
    12.2263  12.8972  13.2286  13.4699  13.8909  14.1082  14.3128  14.9973
    15.2830  15.3252  15.6062  16.1117  16.2942  16.4401  17.4422  18.0353
    18.5586  18.6942  18.7444  19.0456

          k = 0.0000 0.1347 0.0823 (  5426 PWs)   bands (ev):

   -51.5040 -51.5036 -27.7216 -27.7211 -27.5683 -27.5678 -27.5220 -27.5218
   -10.5916 -10.1685  -9.2614  -8.8477  -2.4563  -1.4596   0.2510   0.3479
     0.6383   0.8833   0.9677   1.3021   1.5652   1.6300   2.0337   2.7085
     3.7009   4.1698   6.0654   6.0988   6.1081   6.1740   6.3668   6.5176
     6.5404   6.7206   9.0809   9.3004   9.5764   9.8436  11.2327  11.9985
    12.3488  12.7871  13.2238  13.4800  14.0169  14.1004  14.2618  14.8252
    15.3017  15.3168  15.6318  16.0903  16.3043  16.3883  17.3087  17.9629
    18.4649  18.5464  18.7324  19.1996

          k = 0.0000 0.1540 0.0823 (  5416 PWs)   bands (ev):

   -51.5024 -51.5020 -27.7180 -27.7175 -27.5851 -27.5846 -27.5258 -27.5256
   -10.5383 -10.1156  -9.2395  -8.8366  -2.4024  -1.4066   0.1293   0.2416
     0.5338   0.9247   1.0219   1.1806   1.4942   1.5586   2.0252   2.7114
     3.6463   4.0455   5.9999   6.0774   6.0858   6.1631   6.3417   6.5968
     6.6032   6.8144   9.1717   9.4563   9.7925   9.9903  11.3049  12.1188
    12.4578  12.6984  13.2312  13.5120  13.9141  14.1601  14.4293  14.6313
    15.3167  15.3310  15.6297  16.0479  16.3183  16.3702  17.1820  17.8429
    18.2999  18.4683  18.7419  19.1812

          k = 0.0000 0.1732 0.0823 (  5394 PWs)   bands (ev):

   -51.5006 -51.5002 -27.7140 -27.7135 -27.6036 -27.6031 -27.5298 -27.5296
   -10.4791 -10.0571  -9.2151  -8.8243  -2.3452  -1.3514   0.0024   0.1323
     0.4271   0.9649   1.0562   1.0808   1.4255   1.4838   2.0027   2.7040
     3.5788   3.9210   5.9348   6.0426   6.0836   6.1669   6.3125   6.6738
     6.6864   6.9155   9.2644   9.5946  10.0272  10.1714  11.3843  12.1525
    12.5211  12.6845  13.2489  13.5573  13.7716  14.3180  14.4595  14.6071
    15.3276  15.3490  15.5767  16.0106  16.3375  16.3762  17.0685  17.6912
    18.1240  18.4079  18.7341  19.1645

          k = 0.0000 0.1925 0.0823 (  5394 PWs)   bands (ev):

   -51.4986 -51.4983 -27.7097 -27.7092 -27.6236 -27.6231 -27.5343 -27.5341
   -10.4144  -9.9934  -9.1883  -8.8111  -2.2864  -1.2965  -0.1264   0.0226
     0.3195   0.9300   0.9973   1.1418   1.3664   1.4088   1.9670   2.6872
     3.4982   3.7988   5.8793   6.0066   6.0902   6.1858   6.2813   6.7495
     6.7813   7.0214   9.3611   9.7161  10.2694  10.3779  11.4727  12.1149
    12.4600  12.7933  13.2509  13.6095  13.6852  14.3505  14.4874  14.7890
    15.3469  15.3540  15.4782  15.9913  16.3627  16.3905  16.9731  17.5236
    17.9567  18.3497  18.6760  19.2025

          k = 0.0000 0.2117 0.0823 (  5394 PWs)   bands (ev):

   -51.4966 -51.4962 -27.7052 -27.7047 -27.6446 -27.6441 -27.5390 -27.5388
   -10.3446  -9.9250  -9.1594  -8.7969  -2.2280  -1.2457  -0.2538  -0.0847
     0.2125   0.8032   1.0094   1.1954   1.3299   1.3435   1.9198   2.6619
     3.4061   3.6808   5.8365   5.9723   6.1056   6.2195   6.2501   6.8286
     6.8785   7.1298   9.4625   9.8262  10.5058  10.5942  11.5730  12.0544
    12.3542  12.8841  13.2204  13.6345  13.6829  14.3412  14.6640  14.9644
    15.3085  15.3758  15.4025  15.9819  16.3948  16.4030  16.8973  17.3527
    17.8043  18.2939  18.5743  19.2846

          k = 0.0000 0.2309 0.0823 (  5396 PWs)   bands (ev):

   -51.4944 -51.4941 -27.7004 -27.6999 -27.6666 -27.6661 -27.5439 -27.5437
   -10.2704  -9.8526  -9.1285  -8.7821  -2.1726  -1.2041  -0.3756  -0.1867
     0.1074   0.6767   0.9889   1.1948   1.3285   1.3353   1.8636   2.6293
     3.3058   3.5677   5.8079   5.9413   6.1293   6.2200   6.2674   6.9095
     6.9755   7.2388   9.5688   9.9289  10.7185  10.8010  11.6887  12.0055
    12.2336  12.8998  13.1478  13.6285  13.7830  14.4180  14.8406  15.1158
    15.2038  15.3300  15.4859  15.9769  16.4080  16.4354  16.8379  17.1913
    17.6707  18.2447  18.4511  19.2900

          k = 0.0000 0.2502 0.0823 (  5402 PWs)   bands (ev):

   -51.4922 -51.4919 -27.6958 -27.6953 -27.6890 -27.6885 -27.5489 -27.5487
   -10.1922  -9.7768  -9.0959  -8.7667  -2.1229  -1.1791  -0.4867  -0.2805
     0.0062   0.5518   0.9397   1.1321   1.3581   1.3925   1.8014   2.5906
     3.2022   3.4600   5.7940   5.9153   6.1602   6.1923   6.3275   6.9907
     7.0703   7.3470   9.6798  10.0263  10.8855  10.9783  11.8099  12.0022
    12.1143  12.8609  13.0302  13.6513  13.9256  14.5226  15.0025  15.0947
    15.2336  15.3149  15.6092  15.9755  16.4043  16.4858  16.7908  17.0547
    17.5585  18.2097  18.3229  19.2822

          k = 0.0000 0.2694 0.0823 (  5398 PWs)   bands (ev):

   -51.4899 -51.4896 -27.7126 -27.7121 -27.6902 -27.6898 -27.5541 -27.5539
   -10.1108  -9.6984  -9.0619  -8.7509  -2.0816  -1.1797  -0.5817  -0.3630
    -0.0887   0.4297   0.8750   1.0567   1.4057   1.4651   1.7357   2.5472
     3.1006   3.3583   5.7943   5.8952   6.1680   6.1971   6.3978   7.0709
     7.1615   7.4530   9.7945  10.1183  10.9880  11.1106  11.8781  11.9947
    12.1226  12.7945  12.9006  13.6942  14.0844  14.5945  15.0066  15.1178
    15.3415  15.3484  15.7502  15.9737  16.3937  16.5492  16.7610  16.9653
    17.4680  18.1972  18.2038  19.2972

          k = 0.0000 0.2887 0.0823 (  5398 PWs)   bands (ev):

   -51.4876 -51.4873 -27.7358 -27.7352 -27.6852 -27.6847 -27.5594 -27.5592
   -10.0267  -9.6182  -9.0266  -8.7350  -2.0515  -1.2126  -0.6592  -0.4309
    -0.1744   0.3121   0.8043   0.9801   1.4615   1.5415   1.6692   2.5005
     3.0059   3.2642   5.8078   5.8820   6.1481   6.2385   6.4758   7.1484
     7.2478   7.5554   9.9116  10.2032  11.0276  11.1903  11.8769  11.9235
    12.3114  12.7122  12.7925  13.7662  14.2343  14.6040  14.9375  15.1561
    15.4538  15.4628  15.8753  15.9577  16.3783  16.6308  16.7703  16.9496
    17.3979  18.1057  18.2125  19.3298

          k = 0.0000 0.3079 0.0823 (  5404 PWs)   bands (ev):

   -51.4853 -51.4850 -27.7589 -27.7584 -27.6801 -27.6796 -27.5646 -27.5644
    -9.9408  -9.5369  -8.9904  -8.7191  -2.0347  -1.2767  -0.7258  -0.4825
    -0.2476   0.2007   0.7323   0.9051   1.5206   1.6039   1.6189   2.4519
     2.9217   3.1799   5.8332   5.8763   6.1331   6.2833   6.5588   7.2218
     7.3284   7.6532  10.0291  10.2774  11.0246  11.2190  11.8209  11.8901
    12.4825  12.6442  12.7348  13.8808  14.3649  14.5710  14.8770  15.1247
    15.5711  15.6109  15.9122  15.9718  16.3656  16.7373  16.8429  17.0251
    17.3493  18.0416  18.2529  19.0701

          k = 0.0000 0.3272 0.0823 (  5412 PWs)   bands (ev):

   -51.4830 -51.4827 -27.7817 -27.7812 -27.6750 -27.6745 -27.5698 -27.5696
    -9.8538  -9.4556  -8.9536  -8.7035  -2.0320  -1.3632  -0.7918  -0.5203
    -0.3061   0.0977   0.6614   0.8328   1.5414   1.5800   1.6955   2.4034
     2.8510   3.1077   5.8693   5.8785   6.1237   6.3302   6.6439   7.2897
     7.4026   7.7457  10.1441  10.3358  10.9987  11.2100  11.7609  11.8380
    12.4925  12.5899  12.8478  14.0364  14.4794  14.5267  14.8210  15.0375
    15.6289  15.7443  15.8629  16.0602  16.3815  16.8727  16.9793  17.1810
    17.3278  18.0209  18.3061  18.6891

          k = 0.0000 0.3464 0.0823 (  5416 PWs)   bands (ev):

   -51.4808 -51.4804 -27.8039 -27.8034 -27.6700 -27.6696 -27.5748 -27.5746
    -9.7666  -9.3752  -8.9165  -8.6883  -2.0430  -1.4619  -0.8627  -0.5518
    -0.3497   0.0052   0.5932   0.7640   1.4828   1.6380   1.7701   2.3569
     2.7952   3.0500   5.8886   5.9146   6.1201   6.3783   6.7283   7.3511
     7.4702   7.8320  10.2518  10.3723  10.9565  11.1889  11.6803  11.7841
    12.4368  12.5361  13.0324  14.2006  14.4921  14.5968  14.7744  14.9082
    15.6180  15.6774  15.9430  16.1678  16.4678  17.0369  17.1547  17.3455
    17.3899  18.0491  18.2993  18.3678

          k = 0.0000 0.3657 0.0823 (  5418 PWs)   bands (ev):

   -51.4786 -51.4783 -27.8253 -27.8248 -27.6652 -27.6648 -27.5797 -27.5795
    -9.6801  -9.2967  -8.8796  -8.6736  -2.0659  -1.5654  -0.9385  -0.5855
    -0.3803  -0.0752   0.5285   0.6992   1.4288   1.6933   1.8417   2.3143
     2.7550   3.0084   5.9064   5.9679   6.1224   6.4268   6.8088   7.4055
     7.5309   7.9116  10.3304  10.3977  10.8896  11.1887  11.5799  11.7346
    12.3814  12.5018  13.1947  14.2991  14.4862  14.7106  14.7517  14.7942
    15.5456  15.5488  16.0085  16.2983  16.6367  17.2245  17.3001  17.4482
    17.6259  17.9872  18.1273  18.2996

          k = 0.0000 0.3849 0.0823 (  5410 PWs)   bands (ev):

   -51.4766 -51.4762 -27.8457 -27.8451 -27.6606 -27.6602 -27.5844 -27.5841
    -9.5951  -9.2212  -8.8432  -8.6598  -2.0979  -1.6691  -1.0166  -0.6267
    -0.4015  -0.1430   0.4680   0.6390   1.3795   1.7449   1.9093   2.2769
     2.7306   2.9836   5.9313   6.0281   6.1302   6.4748   6.8824   7.4530
     7.5846   7.9842  10.3154  10.4684  10.7946  11.2277  11.4833  11.6728
    12.3456  12.4874  13.3146  14.3113  14.4929  14.5803  14.7090  15.0170
    15.4067  15.4405  16.0411  16.4451  16.8422  17.3437  17.4269  17.6484
    17.7439  17.8700  18.1528  18.2551

          k = 0.0000 0.4041 0.0823 (  5414 PWs)   bands (ev):

   -51.4746 -51.4743 -27.8647 -27.8642 -27.6563 -27.6559 -27.5887 -27.5885
    -9.5128  -9.1499  -8.8078  -8.6467  -2.1360  -1.7697  -1.0941  -0.6761
    -0.4168  -0.1997   0.4122   0.5835   1.3350   1.7922   1.9721   2.2454
     2.7214   2.9751   5.9623   6.0942   6.1431   6.5216   6.9463   7.4944
     7.6317   8.0496  10.2419  10.5356  10.6957  11.3012  11.4055  11.5896
    12.3418  12.4898  13.3834  14.3027  14.4039  14.4707  14.7046  15.2789
    15.2895  15.3099  16.0502  16.6024  16.9867  17.2856  17.6357  17.7022
    17.8260  18.0548  18.1065  18.4304

          k = 0.0000 0.4234 0.0823 (  5420 PWs)   bands (ev):

   -51.4728 -51.4724 -27.8824 -27.8819 -27.6522 -27.6518 -27.5928 -27.5926
    -9.4341  -9.0840  -8.7738  -8.6346  -2.1769  -1.8653  -1.1686  -0.7312
    -0.4297  -0.2476   0.3615   0.5332   1.2953   1.8347   2.0295   2.2196
     2.7262   2.9812   5.9982   6.1602   6.1652   6.5666   6.9982   7.5307
     7.6722   8.1076  10.1289  10.5022  10.6927  11.3462  11.3922  11.4967
    12.3727  12.5045  13.4004  14.2298  14.3064  14.4114  14.6988  15.1690
    15.1804  15.5671  16.0174  16.7657  16.8961  17.3261  17.7494  17.8445
    17.9127  18.1968  18.3269  18.6468

          k = 0.0000 0.4426 0.0823 (  5432 PWs)   bands (ev):

   -51.4712 -51.4708 -27.8984 -27.8978 -27.6486 -27.6482 -27.5965 -27.5963
    -9.3601  -9.0247  -8.7419  -8.6234  -2.2180  -1.9543  -1.2380  -0.7880
    -0.4427  -0.2887   0.3161   0.4883   1.2605   1.8721   2.0809   2.1990
     2.7432   2.9991   6.0371   6.1806   6.2402   6.6090   7.0369   7.5628
     7.7066   8.1582   9.9846  10.3998  10.7686  11.2928  11.3714  11.5323
    12.4316  12.5265  13.3763  14.0635  14.3095  14.3311  14.6919  15.0274
    15.1232  15.8098  15.9290  16.7438  16.9307  17.3201  17.8718  18.0484
    18.0672  18.4114  18.5321  18.8875

          k = 0.0000 0.4619 0.0823 (  5426 PWs)   bands (ev):

   -51.4697 -51.4693 -27.9126 -27.9120 -27.6453 -27.6450 -27.5997 -27.5995
    -9.2920  -8.9729  -8.7124  -8.6130  -2.2569  -2.0352  -1.3009  -0.8429
    -0.4571  -0.3240   0.2764   0.4490   1.2304   1.9044   2.1259   2.1828
     2.7698   3.0251   6.0773   6.2027   6.3179   6.6479   7.0626   7.5909
     7.7352   8.2016   9.8217  10.3019  10.8571  11.1909  11.3421  11.6451
    12.5045  12.5534  13.3327  13.9098  14.1844  14.3539  14.6916  14.8922
    15.1073  15.7208  16.0467  16.6406  17.0931  17.2602  18.0648  18.2437
    18.2447  18.6177  18.7253  19.1343

          k = 0.0000 0.4811 0.0823 (  5422 PWs)   bands (ev):

   -51.4684 -51.4681 -27.9248 -27.9243 -27.6425 -27.6421 -27.6025 -27.6023
    -9.2308  -8.9298  -8.6861  -8.6034  -2.2916  -2.1070  -1.3559  -0.8931
    -0.4732  -0.3538   0.2425   0.4154   1.2051   1.9314   2.1641   2.1703
     2.8028   3.0552   6.1165   6.2252   6.3966   6.6818   7.0769   7.6148
     7.7584   8.2378   9.6548  10.2182  10.9448  11.0758  11.3472  11.7570
    12.5609  12.5959  13.2965  13.7726  14.0396  14.3736  14.7039  14.7689
    15.1206  15.5058  16.1424  16.6154  17.2141  17.2473  18.2314  18.4245
    18.4262  18.8157  18.9039  19.2258

          k = 0.0000 0.5004 0.0823 (  5418 PWs)   bands (ev):

   -51.4674 -51.4670 -27.9350 -27.9345 -27.6402 -27.6398 -27.6049 -27.6047
    -9.1778  -8.8958  -8.6634  -8.5946  -2.3206  -2.1687  -1.4021  -0.9364
    -0.4899  -0.3780   0.2145   0.3878   1.1846   1.9534   2.1604   2.1957
     2.8382   3.0854   6.1526   6.2464   6.4741   6.7094   7.0826   7.6338
     7.7768   8.2670   9.4971  10.1505  10.9410  11.0588  11.3675  11.8550
    12.5901  12.6444  13.2946  13.6551  13.8937  14.3819  14.6620  14.7278
    15.1364  15.2920  16.1306  16.6371  17.2125  17.3876  18.3291  18.5909
    18.6085  19.0244  19.0627  19.3728

          k = 0.0000 0.5196 0.0823 (  5416 PWs)   bands (ev):

   -51.4665 -51.4662 -27.9430 -27.9425 -27.6383 -27.6379 -27.6067 -27.6065
    -9.1343  -8.8709  -8.6449  -8.5869  -2.3429  -2.2191  -1.4387  -0.9714
    -0.5055  -0.3968   0.1927   0.3662   1.1688   1.9702   2.1533   2.2202
     2.8720   3.1122   6.1833   6.2649   6.5475   6.7284   7.0824   7.6476
     7.7905   8.2895   9.3600  10.0990  10.8510  11.1381  11.3955  11.9292
    12.6086  12.6742  13.3346  13.5606  13.7669  14.3773  14.5752  14.7485
    15.0483  15.2014  16.0956  16.6109  17.2731  17.5072  18.3748  18.7314
    18.7869  19.1950  19.2316  19.5159

          k = 0.0000 0.5389 0.0823 (  5420 PWs)   bands (ev):

   -51.4659 -51.4656 -27.9488 -27.9483 -27.6369 -27.6366 -27.6081 -27.6079
    -9.1017  -8.8544  -8.6313  -8.5807  -2.3579  -2.2572  -1.4653  -0.9971
    -0.5182  -0.4103   0.1770   0.3507   1.1576   1.9822   2.1483   2.2377
     2.8999   3.1329   6.2069   6.2792   6.6128   6.7365   7.0794   7.6565
     7.8001   8.3055   9.2534  10.0633  10.7785  11.2078  11.4250  11.9744
    12.6040  12.7104  13.3755  13.4911  13.6991  14.3540  14.5112  14.7151
    14.9630  15.1810  16.0958  16.5255  17.3647  17.5994  18.3897  18.8398
    18.9535  19.2949  19.3806  19.5265

          k = 0.0000 0.5581 0.0823 (  5420 PWs)   bands (ev):

   -51.4656 -51.4652 -27.9523 -27.9518 -27.6361 -27.6358 -27.6089 -27.6087
    -9.0814  -8.8453  -8.6229  -8.5766  -2.3662  -2.2813  -1.4814  -1.0127
    -0.5264  -0.4184   0.1676   0.3414   1.1509   1.9893   2.1454   2.2482
     2.9184   3.1459   6.2217   6.2882   6.6656   6.7313   7.0763   7.6614
     7.8057   8.3150   9.1856  10.0426  10.7327  11.2545  11.4483  11.9945
    12.5877  12.7531  13.3634  13.4487  13.7236  14.3063  14.4720  14.6396
    14.9882  15.1360  16.1414  16.4191  17.4404  17.6577  18.3885  18.9087
    19.1060  19.3537  19.3571  19.5826

          k = 0.0000 0.5774 0.0823 (  5404 PWs)   bands (ev):

   -51.4655 -51.4651 -27.9535 -27.9530 -27.6358 -27.6355 -27.6092 -27.6090
    -9.0745  -8.8424  -8.6200  -8.5752  -2.3687  -2.2896  -1.4868  -1.0180
    -0.5292  -0.4211   0.1644   0.3383   1.1487   1.9916   2.1445   2.2517
     2.9248   3.1503   6.2267   6.2913   6.6948   6.7187   7.0750   7.6629
     7.8076   8.3181   9.1623  10.0359  10.7170  11.2710  11.4575  11.9995
    12.5800  12.7732  13.3452  13.4345  13.7563  14.2735  14.4588  14.6102
    15.0292  15.0935  16.1845  16.3554  17.4693  17.6778  18.3858  18.9324
    19.2266  19.2592  19.3782  19.6193

          k = 0.0222 0.5773 0.0823 (  5412 PWs)   bands (ev):

   -51.4654 -51.4650 -27.9528 -27.9523 -27.6357 -27.6354 -27.6106 -27.6103
    -9.0722  -8.8406  -8.6185  -8.5742  -2.3611  -2.2843  -1.4885  -1.0274
    -0.5282  -0.4234   0.1634   0.3424   1.1549   1.9553   2.1427   2.2213
     2.9372   3.1627   6.2246   6.2905   6.7059   6.7180   7.0872   7.6688
     7.7903   8.3015   9.1715  10.0555  10.7457  11.2965  11.4789  12.0107
    12.5851  12.7816  13.2734  13.4417  13.7601  14.3084  14.4137  14.6216
    15.0557  15.1131  16.1896  16.3611  17.4538  17.6631  18.3773  18.8389
    19.1093  19.2440  19.5245  19.5473

          k = 0.0444 0.5773 0.0823 (  5422 PWs)   bands (ev):

   -51.4652 -51.4649 -27.9509 -27.9503 -27.6354 -27.6350 -27.6147 -27.6145
    -9.0653  -8.8355  -8.6140  -8.5712  -2.3384  -2.2686  -1.4939  -1.0552
    -0.5249  -0.4295   0.1610   0.3544   1.1726   1.8539   2.1350   2.1370
     2.9691   3.1949   6.2171   6.2867   6.7171   6.7383   7.1244   7.6847
     7.7418   8.2561   9.1983  10.1116  10.8282  11.3707  11.5425  12.0444
    12.5997  12.8064  13.1018  13.4514  13.7688  14.3085  14.3861  14.6458
    15.1198  15.1666  16.2050  16.3781  17.4119  17.6172  18.3383  18.6558
    18.9096  19.1327  19.4532  19.4869

          k = 0.0667 0.5773 0.0823 (  5426 PWs)   bands (ev):

   -51.4650 -51.4646 -27.9476 -27.9471 -27.6348 -27.6345 -27.6214 -27.6212
    -9.0540  -8.8272  -8.6066  -8.5663  -2.3008  -2.2427  -1.5032  -1.1002
    -0.5188  -0.4377   0.1583   0.3741   1.1992   1.7027   2.0091   2.1220
     3.0114   3.2368   6.2011   6.2757   6.7197   6.7895   7.1871   7.6713
     7.7048   8.1949   9.2415  10.1982  10.9546  11.4876  11.6467  12.1000
    12.6206  12.8468  12.8838  13.4639  13.7717  14.1869  14.4704  14.6787
    15.1987  15.2389  16.2289  16.4060  17.3538  17.5371  18.2174  18.4839
    18.6883  18.8811  19.2499  19.4924

          k = 0.0889 0.5773 0.0823 (  5440 PWs)   bands (ev):

   -51.4646 -51.4643 -27.9430 -27.9425 -27.6341 -27.6337 -27.6306 -27.6304
    -9.0386  -8.8161  -8.5966  -8.5595  -2.2490  -2.2076  -1.5167  -1.1601
    -0.5090  -0.4463   0.1570   0.4010   1.2313   1.5161   1.8511   2.1000
     3.0583   3.2806   6.1728   6.2518   6.7308   6.8551   7.2745   7.5912
     7.7150   8.1404   9.2992  10.3060  11.1109  11.6396  11.7871  12.1758
    12.5808  12.7179  12.9004  13.4831  13.7396  14.0991  14.5480  14.7207
    15.2809  15.3102  16.2543  16.4444  17.2897  17.4289  17.9872  18.3413
    18.4355  18.6286  19.1183  19.4586

          k = 0.1111 0.5773 0.0823 (  5424 PWs)   bands (ev):

   -51.4642 -51.4638 -27.9373 -27.9367 -27.6421 -27.6419 -27.6331 -27.6327
    -9.0194  -8.8029  -8.5843  -8.5512  -2.1836  -2.1643  -1.5344  -1.2313
    -0.4941  -0.4543   0.1585   0.4347   1.2651   1.3059   1.6706   2.0686
     3.1080   3.3225   6.1298   6.2100   6.7548   6.9279   7.3796   7.5195
     7.6940   8.1216   9.3700  10.4249  11.2784  11.8199  11.9559  12.2673
    12.3638  12.7471  12.9589  13.5134  13.6518  14.0879  14.6189  14.7712
    15.3626  15.3658  16.2669  16.4921  17.2014  17.3337  17.7010  18.1536
    18.1649  18.4400  19.0561  19.3134

          k = 0.1333 0.5773 0.0823 (  5432 PWs)   bands (ev):

   -51.4637 -51.4634 -27.9303 -27.9298 -27.6556 -27.6554 -27.6320 -27.6316
    -8.9969  -8.7884  -8.5701  -8.5414  -2.1148  -2.1061  -1.5549  -1.3091
    -0.4733  -0.4618   0.1636   0.4748   1.0813   1.2971   1.4743   2.0267
     3.1608   3.3625   6.0712   6.1485   6.7924   6.9951   7.4273   7.5435
     7.6354   8.1508   9.4520  10.5448  11.4228  12.0226  12.1239  12.1709
    12.3630  12.8237  13.0023  13.5610  13.5617  14.1359  14.6851  14.8281
    15.3989  15.4424  16.2526  16.5475  17.0465  17.3101  17.3925  17.8971
    17.9304  18.2931  19.0440  19.0527

          k = 0.1556 0.5773 0.0823 (  5420 PWs)   bands (ev):

   -51.4632 -51.4628 -27.9223 -27.9218 -27.6707 -27.6705 -27.6308 -27.6304
    -8.9716  -8.7733  -8.5545  -8.5305  -2.0619  -2.0188  -1.5755  -1.3879
    -0.4695  -0.4457   0.1715   0.5206   0.8506   1.2676   1.3248   1.9740
     3.2182   3.4021   5.9979   6.0688   6.8405   7.0363   7.4158   7.5577
     7.6812   8.2139   9.5441  10.6578  11.4642  12.0354  12.2419  12.3381
    12.4352  12.9332  13.0100  13.5449  13.6360  14.2168  14.7469  14.8884
    15.4076  15.5193  16.2126  16.6063  16.8567  17.0805  17.3149  17.6586
    17.7134  18.1437  18.7409  19.0670

          k = 0.1778 0.5773 0.0823 (  5410 PWs)   bands (ev):

   -51.4626 -51.4622 -27.9133 -27.9127 -27.6871 -27.6869 -27.6296 -27.6292
    -8.9441  -8.7588  -8.5380  -8.5188  -2.0103  -1.9269  -1.5909  -1.4592
    -0.4789  -0.4115   0.1781   0.5713   0.6238   1.0571   1.3453   1.9106
     3.2813   3.4436   5.9120   5.9745   6.8923   7.0373   7.4474   7.4828
     7.8367   8.2932   9.6444  10.7587  11.3455  12.0615  12.4146  12.4854
    12.5359  13.0295  13.0735  13.6188  13.7488  14.3201  14.8015  14.9465
    15.3897  15.5907  16.1653  16.6460  16.6554  16.7971  17.2342  17.5162
    17.5328  17.9715  18.4364  19.1002

          k = 0.2000 0.5773 0.0823 (  5406 PWs)   bands (ev):

   -51.4620 -51.4617 -27.9034 -27.9029 -27.7043 -27.7042 -27.6283 -27.6279
    -8.9152  -8.7457  -8.5213  -8.5065  -1.9673  -1.8445  -1.5929  -1.5065
    -0.4917  -0.3715   0.1630   0.4257   0.6247   0.8491   1.3583   1.8377
     3.3508   3.4887   5.8167   5.8701   6.9372   7.0119   7.4289   7.5120
     7.9962   8.3767   9.7507  10.8448  11.1549  12.1266  12.3075  12.7153
    12.7499  13.1232  13.2308  13.7439  13.9080  14.4412  14.8415  14.9932
    15.3468  15.6522  16.1313  16.4564  16.4641  16.7516  17.0280  17.3349
    17.5372  17.7728  18.1827  18.8937

          k = 0.2222 0.5773 0.0823 (  5396 PWs)   bands (ev):

   -51.4615 -51.4611 -27.8928 -27.8923 -27.7220 -27.7218 -27.6271 -27.6267
    -8.8855  -8.7353  -8.5051  -8.4943  -1.9404  -1.8040  -1.5729  -1.4952
    -0.5104  -0.3282   0.0574   0.3301   0.6262   0.7027   1.3636   1.7577
     3.4259   3.5378   5.7162   5.7604   6.9624   6.9804   7.4116   7.5856
     8.1519   8.4557   9.8587  10.9150  10.9609  12.1349  12.1721  12.9474
    12.9804  13.2741  13.3905  13.8876  14.1091  14.5769  14.8519  15.0128
    15.2945  15.6958  16.1152  16.2280  16.2715  16.7816  16.8039  17.1511
    17.5578  17.5907  17.9902  18.6301

          k = 0.2444 0.5773 0.0823 (  5388 PWs)   bands (ev):

   -51.4610 -51.4606 -27.8818 -27.8813 -27.7394 -27.7392 -27.6260 -27.6256
    -8.8559  -8.7286  -8.4901  -8.4826  -1.9312  -1.8186  -1.5289  -1.4106
    -0.5386  -0.2939  -0.1141   0.3261   0.4484   0.7499   1.3627   1.6736
     3.5043   3.5898   5.6159   5.6512   6.9530   6.9631   7.4358   7.6522
     8.2959   8.5238   9.9600  10.7940  10.9672  11.9460  12.1951  13.1661
    13.2107  13.4546  13.5520  14.0292  14.3281  14.7227  14.8143  14.9813
    15.2648  15.7076  16.0609  16.0895  16.1090  16.6215  16.7399  16.9915
    17.4838  17.5624  17.8448  18.3800

          k = 0.2667 0.5773 0.0823 (  5386 PWs)   bands (ev):

   -51.4605 -51.4602 -27.8709 -27.8704 -27.7559 -27.7557 -27.6250 -27.6247
    -8.8271  -8.7263  -8.4771  -8.4723  -1.9333  -1.8556  -1.4678  -1.2844
    -0.5806  -0.3685  -0.1813   0.2813   0.3445   0.8051   1.3590   1.5898
     3.5814   3.6411   5.5227   5.5498   6.9335   6.9483   7.4906   7.7017
     8.4204   8.5760  10.0384  10.6818  10.9943  11.7690  12.2054  13.3622
    13.4143  13.6477  13.7227  14.1540  14.5250  14.7333  14.8667  14.8876
    15.2792  15.6727  15.9612  15.9911  16.0160  16.5424  16.5472  16.9591
    17.4362  17.5501  17.7497  18.1479

          k = 0.2889 0.5773 0.0823 (  5376 PWs)   bands (ev):

   -51.4602 -51.4599 -27.8607 -27.8602 -27.7704 -27.7702 -27.6243 -27.6239
    -8.8001  -8.7294  -8.4668  -8.4640  -1.9384  -1.8924  -1.4013  -1.1390
    -0.6414  -0.5336  -0.1405   0.1426   0.3657   0.8531   1.3579   1.5115
     3.6500   3.6859   5.4452   5.4648   6.9221   6.9310   7.5595   7.7269
     8.5180   8.6091  10.0737  10.6520  10.9818  11.6311  12.2113  13.5261
    13.5682  13.8379  13.8973  14.2490  14.6144  14.6852  14.7239  15.0286
    15.3293  15.6020  15.8226  15.9258  15.9877  16.3173  16.5626  16.9825
    17.4035  17.5261  17.7213  17.9447

          k = 0.3111 0.5773 0.0823 (  5372 PWs)   bands (ev):

   -51.4600 -51.4596 -27.8529 -27.8525 -27.7810 -27.7807 -27.6238 -27.6234
    -8.7756  -8.7384  -8.4600  -8.4587  -1.9405  -1.9204  -1.3447  -0.9848
    -0.7211  -0.6793  -0.0869   0.0384   0.3820   0.8862   1.3675   1.4448
     3.7007   3.7160   5.3927   5.4067   6.9172   6.9190   7.6289   7.7226
     8.5834   8.6218  10.0714  10.7043  10.9160  11.5546  12.2164  13.6420
    13.6610  14.0096  14.0429  14.2894  14.5472  14.5677  14.7420  15.1859
    15.3541  15.5066  15.7451  15.8836  15.9949  16.1271  16.6161  17.0115
    17.3905  17.4826  17.7403  17.8039

          k = 0.3333 0.5773 0.0823 (  5376 PWs)   bands (ev):

   -51.4599 -51.4596 -27.8498 -27.8495 -27.7850 -27.7847 -27.6236 -27.6232
    -8.7550  -8.7535  -8.4572  -8.4571  -1.9361  -1.9357  -1.3204  -0.8683
    -0.7740  -0.7735  -0.0326  -0.0311   0.3883   0.8979   1.3943   1.3967
     3.7233   3.7236   5.3739   5.3857   6.9149   6.9163   7.6868   7.6884
     8.6145   8.6155  10.0647  10.8062  10.8093  11.5346  12.2192  13.6874
    13.6881  14.1123  14.1132  14.2474  14.5121  14.5125  14.7628  15.3189
    15.3199  15.4160  15.7398  15.9342  15.9346  16.0572  16.6452  17.0237
    17.4200  17.4222  17.7582  17.7595

          k = 0.3238 0.5608 0.0823 (  5368 PWs)   bands (ev):

   -51.4600 -51.4596 -27.8518 -27.8515 -27.7822 -27.7818 -27.6238 -27.6233
    -8.7738  -8.7390  -8.4594  -8.4583  -1.9378  -1.9256  -1.3401  -0.9344
    -0.7981  -0.6572  -0.0689   0.0144   0.3834   0.8897   1.3709   1.4366
     3.7077   3.7155   5.3881   5.4019   6.9148   6.9189   7.6339   7.7227
     8.5958   8.6181  10.0722  10.7055  10.9166  11.5433  12.2154  13.6604
    13.6660  14.0047  14.0815  14.3139  14.5321  14.5388  14.7452  15.2375
    15.3091  15.5192  15.7429  15.8537  16.0386  16.0762  16.6185  17.0137
    17.4009  17.4697  17.7501  17.7750

          k = 0.3143 0.5444 0.0823 (  5384 PWs)   bands (ev):

   -51.4602 -51.4598 -27.8567 -27.8564 -27.7750 -27.7746 -27.6242 -27.6238
    -8.7980  -8.7284  -8.4653  -8.4629  -1.9283  -1.9101  -1.3906  -1.0276
    -0.7754  -0.5135  -0.0902   0.0590   0.3697   0.8677   1.3660   1.4893
     3.6714   3.6817   5.4288   5.4495   6.9117   6.9261   7.5614   7.7388
     8.5658   8.6042  10.0970  10.6149  11.0320  11.5609  12.2008  13.5756
    13.6165  13.8466  13.9853  14.3931  14.5614  14.6100  14.6992  15.1093
    15.3265  15.6571  15.7572  15.7970  16.1276  16.1519  16.5520  16.9821
    17.4330  17.4822  17.7576  17.8136

          k = 0.3048 0.5279 0.0823 (  5374 PWs)   bands (ev):

   -51.4605 -51.4601 -27.8624 -27.8622 -27.7651 -27.7647 -27.6249 -27.6245
    -8.8277  -8.7225  -8.4751  -8.4710  -1.9072  -1.8915  -1.4501  -1.1189
    -0.7256  -0.3703  -0.0960   0.0977   0.3520   0.8361   1.3791   1.5516
     3.6176   3.6253   5.4911   5.5242   6.9029   6.9353   7.4760   7.7315
     8.5283   8.5780  10.1379  10.5460  11.1504  11.5789  12.1719  13.4468
    13.5400  13.6947  13.8766  14.4277  14.5870  14.6228  14.7148  14.9953
    15.3501  15.7531  15.7691  15.7865  16.2174  16.2517  16.4912  16.9319
    17.4117  17.5054  17.8342  17.8623

          k = 0.2952 0.5114 0.0823 (  5370 PWs)   bands (ev):

   -51.4610 -51.4606 -27.8678 -27.8675 -27.7537 -27.7533 -27.6260 -27.6256
    -8.8631  -8.7219  -8.4889  -8.4821  -1.8748  -1.8746  -1.4989  -1.2027
    -0.6646  -0.2448  -0.0751   0.1235   0.3411   0.7989   1.4079   1.6203
     3.5509   3.5517   5.5671   5.6190   6.8848   6.9429   7.3843   7.6997
     8.4853   8.5444  10.1921  10.5059  11.2683  11.5914  12.1282  13.2908
    13.4235  13.5582  13.8028  14.3923  14.5517  14.5966  14.8073  14.9315
    15.3717  15.7402  15.7456  15.8675  16.3254  16.3418  16.4878  16.8692
    17.3087  17.6033  17.9152  17.9497

          k = 0.2857 0.4949 0.0823 (  5370 PWs)   bands (ev):

   -51.4616 -51.4613 -27.8721 -27.8718 -27.7416 -27.7412 -27.6274 -27.6270
    -8.9043  -8.7278  -8.5068  -8.4957  -1.8675  -1.8311  -1.5219  -1.2754
    -0.6021  -0.1785   0.0100   0.1268   0.3512   0.7594   1.4491   1.6930
     3.4669   3.4764   5.6480   5.7263   6.8549   6.9446   7.2930   7.6459
     8.4389   8.5073  10.2577  10.4975  11.3816  11.5943  12.0734  13.1247
    13.2713  13.4377  13.7773  14.2914  14.4733  14.5757  14.8892  14.9332
    15.3904  15.6813  15.7320  15.9084  16.3733  16.4738  16.5533  16.8072
    17.2329  17.7208  17.9674  18.0764

          k = 0.2762 0.4784 0.0823 (  5370 PWs)   bands (ev):

   -51.4624 -51.4621 -27.8748 -27.8745 -27.7290 -27.7286 -27.6292 -27.6288
    -8.9514  -8.7412  -8.5285  -8.5109  -1.8748  -1.7777  -1.5106  -1.3340
    -0.5442  -0.1596   0.1082   0.1445   0.3866   0.7203   1.4997   1.7678
     3.3763   3.3986   5.7242   5.8388   6.8124   6.9346   7.2070   7.5762
     8.3913   8.4692  10.3336  10.5201  11.4831  11.5842  12.0175  12.9614
    13.1045  13.3336  13.7866  14.1525  14.3920  14.5317  14.9382  14.9738
    15.4056  15.6072  15.7276  15.8940  16.4142  16.5297  16.6539  16.8091
    17.2319  17.8525  18.0158  18.2021

          k = 0.2667 0.4619 0.0823 (  5382 PWs)   bands (ev):

   -51.4634 -51.4630 -27.8758 -27.8755 -27.7163 -27.7158 -27.6313 -27.6309
    -9.0042  -8.7631  -8.5538  -8.5268  -1.8929  -1.7166  -1.4674  -1.3753
    -0.4953  -0.1537   0.0792   0.2907   0.4403   0.6837   1.5567   1.8435
     3.2845   3.3212   5.7869   5.9496   6.7604   6.9070   7.1282   7.4992
     8.3451   8.4319  10.4197  10.5703  11.5568  11.5576  11.9798  12.8106
    12.9394  13.2464  13.8178  14.0009  14.3114  14.4733  14.9267  15.0268
    15.4264  15.5502  15.7224  15.8234  16.4483  16.4612  16.7652  16.9341
    17.3195  17.9705  18.0823  18.3181

          k = 0.2571 0.4454 0.0823 (  5392 PWs)   bands (ev):

   -51.4645 -51.4642 -27.8748 -27.8746 -27.7034 -27.7030 -27.6338 -27.6335
    -9.0628  -8.7940  -8.5823  -8.5427  -1.9138  -1.6533  -1.4006  -1.3938
    -0.4582  -0.1527   0.0495   0.4375   0.5064   0.6518   1.6179   1.9190
     3.1951   3.2471   5.8284   6.0524   6.7052   6.8572   7.0551   7.4233
     8.3030   8.3956  10.5158  10.6421  11.5109  11.5782  11.9880  12.6801
    12.7859  13.1763  13.8520  13.8606  14.2367  14.4044  14.8495  15.0784
    15.4234  15.5474  15.7024  15.7195  16.3253  16.5188  16.8767  17.1068
    17.4741  18.0224  18.2184  18.4146

          k = 0.2476 0.4289 0.0823 (  5396 PWs)   bands (ev):

   -51.4658 -51.4654 -27.8719 -27.8716 -27.6906 -27.6902 -27.6367 -27.6363
    -9.1268  -8.8340  -8.6137  -8.5581  -1.9315  -1.5978  -1.3797  -1.3173
    -0.4344  -0.1555   0.0245   0.5744   0.5817   0.6327   1.6811   1.9936
     3.1115   3.1783   5.8443   6.1411   6.6528   6.7856   6.9849   7.3540
     8.2666   8.3596  10.6218  10.7291  11.4417  11.5433  12.0461  12.5750
    12.6530  13.1214  13.7173  13.9015  14.1775  14.3273  14.7328  15.1183
    15.3549  15.5663  15.6180  15.6958  16.2129  16.5818  16.9854  17.2990
    17.6689  18.0531  18.3832  18.4787

          k = 0.2381 0.4124 0.0823 (  5400 PWs)   bands (ev):

   -51.4673 -51.4669 -27.8669 -27.8666 -27.6780 -27.6776 -27.6399 -27.6395
    -9.1959  -8.8824  -8.6474  -8.5733  -1.9433  -1.5588  -1.3250  -1.2221
    -0.4230  -0.1621   0.0069   0.5960   0.6639   0.7304   1.7449   2.0668
     3.0360   3.1162   5.8356   6.2088   6.6054   6.6993   6.9156   7.2925
     8.2363   8.3221  10.7354  10.8246  11.3501  11.4770  12.1250  12.4962
    12.5523  13.0762  13.6066  13.9175  14.1517  14.2447  14.6031  15.1366
    15.2610  15.4115  15.6641  15.7027  16.1382  16.6412  17.0914  17.5025
    17.8863  18.0965  18.4970  18.5459

          k = 0.2286 0.3959 0.0823 (  5404 PWs)   bands (ev):

   -51.4688 -51.4685 -27.8598 -27.8596 -27.6656 -27.6652 -27.6435 -27.6431
    -9.2697  -8.9386  -8.6832  -8.5883  -1.9489  -1.5298  -1.2380  -1.1187
    -0.4210  -0.1724  -0.0025   0.5833   0.7509   0.8622   1.8077   2.1381
     2.9711   3.0618   5.8081   6.2470   6.5606   6.6120   6.8466   7.2374
     8.2106   8.2810  10.8515  10.9207  11.2412  11.3990  12.1911  12.4387
    12.5039  13.0331  13.5278  13.8939  14.1592  14.1620  14.4841  15.1265
    15.1603  15.2520  15.6215  15.7727  16.1142  16.6952  17.1922  17.7080
    18.1146  18.1639  18.4633  18.6895

          k = 0.2190 0.3794 0.0823 (  5414 PWs)   bands (ev):

   -51.4706 -51.4702 -27.8508 -27.8506 -27.6535 -27.6530 -27.6474 -27.6469
    -9.3476  -9.0015  -8.7204  -8.6034  -1.9487  -1.4995  -1.1323  -1.0105
    -0.4235  -0.1857  -0.0033   0.5761   0.8402   0.9864   1.8684   2.2075
     2.9187   3.0160   5.7703   6.2452   6.5143   6.5404   6.7780   7.1876
     8.1868   8.2337  10.9575  10.9936  11.1399  11.3237  12.2199  12.3927
    12.5273  12.9884  13.4753  13.8485  14.0915  14.1399  14.4221  15.0651
    15.0834  15.1011  15.5777  15.8110  16.1351  16.7516  17.2812  17.8934
    18.2498  18.3215  18.4165  18.7987

          k = 0.2095 0.3629 0.0823 (  5406 PWs)   bands (ev):

   -51.4725 -51.4721 -27.8398 -27.8396 -27.6515 -27.6511 -27.6417 -27.6412
    -9.4291  -9.0700  -8.7588  -8.6188  -1.9446  -1.4623  -1.0170  -0.9023
    -0.4243  -0.1997   0.0051   0.5757   0.9289   1.0993   1.9255   2.2747
     2.8806   2.9797   5.7305   6.2017   6.4631   6.4926   6.7104   7.1426
     8.1614   8.1782  10.9317  11.0192  11.1613  11.2822  12.2287  12.3459
    12.5994  12.9489  13.4182  13.7969  14.0532  14.0588  14.4452  14.9395
    14.9854  15.0434  15.5420  15.8093  16.1861  16.8188  17.3507  17.9777
    18.3239  18.3351  18.5997  18.8795

          k = 0.2000 0.3464 0.0823 (  5414 PWs)   bands (ev):

   -51.4744 -51.4741 -27.8270 -27.8268 -27.6559 -27.6555 -27.6302 -27.6298
    -9.5134  -9.1432  -8.7979  -8.6346  -1.9387  -1.4167  -0.8995  -0.8008
    -0.4154  -0.2104   0.0245   0.5822   1.0136   1.1978   1.9779   2.3397
     2.8587   2.9543   5.6952   6.1348   6.4066   6.4574   6.6440   7.1018
     8.1127   8.1308  10.7956  10.9890  11.2485  11.3184  12.2444  12.2875
    12.6789  12.9260  13.3187  13.7406  13.9562  14.0875  14.5032  14.7959
    14.9291  14.9941  15.5204  15.7699  16.2525  16.8959  17.3968  17.8726
    18.3294  18.4173  18.8229  18.9858

          k = 0.1905 0.3299 0.0823 (  5410 PWs)   bands (ev):

   -51.4765 -51.4762 -27.8125 -27.8123 -27.6606 -27.6601 -27.6192 -27.6188
    -9.5998  -9.2200  -8.8373  -8.6508  -1.9339  -1.3632  -0.7889  -0.7150
    -0.3879  -0.2096   0.0581   0.5959   1.0908   1.2791   2.0244   2.4019
     2.8549   2.9416   5.6688   6.0651   6.3459   6.4214   6.5789   7.0640
     8.0361   8.0919  10.6493  10.9006  11.3411  11.3983  12.2127  12.2684
    12.7359  12.9242  13.1697  13.6776  13.9019  14.1712  14.5603  14.6623
    14.9038  14.9535  15.5194  15.7019  16.3240  16.9716  17.4214  17.6813
    18.2468  18.4919  19.0183  19.1600

          k = 0.1810 0.3134 0.0823 (  5430 PWs)   bands (ev):

   -51.4787 -51.4784 -27.7965 -27.7963 -27.6654 -27.6650 -27.6087 -27.6082
    -9.6876  -9.2996  -8.8768  -8.6673  -1.9331  -1.3037  -0.6982  -0.6502
    -0.3370  -0.1838   0.1097   0.6172   1.1570   1.3406   2.0637   2.4607
     2.8714   2.9438   5.6537   6.0042   6.2838   6.3801   6.5155   7.0275
     7.9483   8.0426  10.5015  10.7926  11.4330  11.4863  12.1225  12.2820
    12.7524  12.9059  13.0221  13.6263  13.9074  14.2780  14.5417  14.6013
    14.9145  14.9241  15.5472  15.6152  16.3930  17.0271  17.4336  17.4685
    18.1163  18.4948  18.9790  19.3295

          k = 0.1714 0.2969 0.0823 (  5436 PWs)   bands (ev):

   -51.4810 -51.4806 -27.7791 -27.7789 -27.6704 -27.6700 -27.5986 -27.5981
    -9.7760  -9.3810  -8.9160  -8.6841  -1.9391  -1.2418  -0.6390  -0.6007
    -0.2692  -0.1194   0.1827   0.6463   1.2087   1.3808   2.0954   2.5146
     2.9098   2.9628   5.6508   5.9574   6.2229   6.3344   6.4542   6.9904
     7.8497   7.9813  10.3550  10.6773  11.5212  11.5742  12.0205  12.2510
    12.7291  12.7422  13.0304  13.6048  13.9636  14.3444  14.4668  14.6256
    14.9074  14.9583  15.5177  15.6084  16.4552  17.0399  17.2610  17.4466
    17.9814  18.4358  18.8345  19.4370

          k = 0.1619 0.2804 0.0823 (  5430 PWs)   bands (ev):

   -51.4832 -51.4829 -27.7606 -27.7603 -27.6755 -27.6750 -27.5889 -27.5885
    -9.8643  -9.4634  -8.9547  -8.7011  -1.9541  -1.1833  -0.6077  -0.5544
    -0.1957  -0.0158   0.2779   0.6839   1.2437   1.3994   2.1196   2.5627
     2.9702   2.9993   5.6599   5.9268   6.1661   6.2871   6.3962   6.9515
     7.7412   7.9074  10.2118  10.5590  11.5976  11.6566  11.9133  12.1511
    12.5063  12.7443  13.0927  13.6063  14.0480  14.2663  14.5176  14.6456
    14.9070  15.0252  15.4160  15.6949  16.5072  17.0003  17.0828  17.4569
    17.8796  18.3344  18.6943  19.3485

          k = 0.1524 0.2639 0.0823 (  5418 PWs)   bands (ev):

   -51.4856 -51.4852 -27.7411 -27.7409 -27.6806 -27.6802 -27.5798 -27.5794
    -9.9517  -9.5458  -8.9926  -8.7180  -1.9794  -1.1371  -0.5848  -0.5021
    -0.1223   0.1143   0.3920   0.7303   1.2608   1.3980   2.1372   2.6048
     3.0509   3.0526   5.6798   5.9125   6.1161   6.2410   6.3425   6.9100
     7.6242   7.8212  10.0727  10.4400  11.6174  11.7032  11.8384  12.0211
    12.2871  12.7711  13.1704  13.6187  14.1241  14.1504  14.5771  14.6758
    14.9242  15.1065  15.3197  15.7820  16.5361  16.9211  16.9748  17.4361
    17.8469  18.2030  18.5820  19.2667

          k = 0.1429 0.2474 0.0823 (  5418 PWs)   bands (ev):

   -51.4879 -51.4875 -27.7210 -27.7207 -27.6858 -27.6853 -27.5712 -27.5708
   -10.0375  -9.6275  -9.0295  -8.7348  -2.0148  -1.1129  -0.5497  -0.4393
    -0.0491   0.2583   0.5190   0.7862   1.2609   1.3795   2.1494   2.6412
     3.1198   3.1488   5.7084   5.9131   6.0753   6.1990   6.2945   6.8658
     7.5004   7.7235   9.9388  10.3215  11.5001  11.6084  11.8629  11.9937
    12.0946  12.8139  13.2505  13.6335  14.0331  14.1553  14.6206  14.7231
    14.9479  15.1539  15.2856  15.8405  16.5121  16.8224  16.9947  17.3813
    17.8834  18.0567  18.5026  19.1965

          k = 0.1333 0.2309 0.0823 (  5420 PWs)   bands (ev):

   -51.4902 -51.4898 -27.7005 -27.7003 -27.6907 -27.6903 -27.5632 -27.5628
   -10.1212  -9.7078  -9.0651  -8.7514  -2.0593  -1.1157  -0.4911  -0.3649
     0.0256   0.4076   0.6524   0.8517   1.2467   1.3476   2.1570   2.6721
     3.1974   3.2600   5.7432   5.9263   6.0463   6.1636   6.2534   6.8191
     7.3719   7.6156   9.8105  10.2042  11.2983  11.3910  11.8777  11.9913
    12.0681  12.8670  13.3080  13.6451  13.9392  14.1273  14.6589  14.7737
    14.9572  15.0961  15.3952  15.8640  16.4479  16.7208  17.1361  17.3243
    17.9137  17.9574  18.4502  19.1364

          k = 0.1238 0.2144 0.0823 (  5408 PWs)   bands (ev):

   -51.4925 -51.4921 -27.6962 -27.6957 -27.6793 -27.6791 -27.5557 -27.5553
   -10.2019  -9.7858  -9.0993  -8.7676  -2.1111  -1.1423  -0.4089  -0.2794
     0.1035   0.5560   0.7852   0.9268   1.2234   1.3066   2.1604   2.6976
     3.2810   3.3812   5.7815   5.9485   6.0311   6.1378   6.2206   6.7705
     7.2405   7.4997   9.6882  10.0882  11.0570  11.1387  11.7671  12.0529
    12.1654  12.9291  13.2962  13.6509  13.9164  14.0492  14.6982  14.7891
    14.9360  15.0538  15.5438  15.8725  16.3779  16.6281  17.2897  17.3393
    17.7925  18.0467  18.4192  19.0837

          k = 0.1143 0.1979 0.0823 (  5406 PWs)   bands (ev):

   -51.4947 -51.4943 -27.7010 -27.7005 -27.6588 -27.6585 -27.5488 -27.5483
   -10.2792  -9.8609  -9.1317  -8.7832  -2.1680  -1.1854  -0.3091  -0.1846
     0.1856   0.6993   0.9068   1.0092   1.2009   1.2626   2.1597   2.7175
     3.3664   3.5094   5.8210   5.9747   6.0308   6.1249   6.1976   6.7205
     7.1086   7.3777   9.5721   9.9728  10.7967  10.8785  11.6547  12.1379
    12.2617  12.9982  13.1950  13.6501  13.9413  13.9885  14.7252  14.7343
    14.8949  15.0731  15.6917  15.8837  16.3133  16.5521  17.2913  17.5227
    17.7445  18.1409  18.4070  19.0355

          k = 0.1048 0.1815 0.0823 (  5406 PWs)   bands (ev):

   -51.4968 -51.4965 -27.7057 -27.7052 -27.6385 -27.6382 -27.5424 -27.5420
   -10.3524  -9.9324  -9.1623  -8.7981  -2.2278  -1.2379  -0.1979  -0.0827
     0.2721   0.8340   0.9907   1.0857   1.2059   1.2315   2.1546   2.7315
     3.4495   3.6419   5.8612   5.9991   6.0436   6.1290   6.1859   6.6699
     6.9785   7.2524   9.4625   9.8563  10.5305  10.6224  11.5534  12.2194
    12.3453  13.0445  13.0660  13.6409  13.8358  14.1227  14.6322  14.6855
    14.8974  15.1252  15.8191  15.8943  16.2593  16.4978  17.3367  17.5352
    17.9008  18.2341  18.4153  18.9909

          k = 0.0952 0.1650 0.0823 (  5416 PWs)   bands (ev):

   -51.4988 -51.4985 -27.7102 -27.7097 -27.6188 -27.6185 -27.5366 -27.5362
   -10.4211  -9.9999  -9.1909  -8.8122  -2.2887  -1.2949  -0.0804   0.0241
     0.3626   0.9559   1.0036   1.1067   1.2664   1.2719   2.1449   2.7394
     3.5271   3.7764   5.9036   6.0186   6.0649   6.1509   6.1874   6.6195
     6.8525   7.1263   9.3590   9.7354  10.2673  10.3802  11.4612  12.2779
    12.4057  12.8951  13.1130  13.6052  13.7930  14.2812  14.5089  14.5878
    14.9532  15.1760  15.8883  15.9204  16.2215  16.4656  17.4251  17.5021
    18.1160  18.3224  18.4532  18.9522

          k = 0.0857 0.1485 0.0823 (  5408 PWs)   bands (ev):

   -51.5008 -51.5004 -27.7144 -27.7139 -27.6000 -27.5998 -27.5314 -27.5309
   -10.4847 -10.0626  -9.2173  -8.8254  -2.3486  -1.3529   0.0393   0.1331
     0.4565   0.9744   1.0266   1.1185   1.3585   1.3702   2.1304   2.7407
     3.5967   3.9110   5.9502   6.0356   6.0888   6.1848   6.2030   6.5703
     6.7336   7.0024   9.2611   9.6045  10.0140  10.1626  11.3767  12.2709
    12.4306  12.8067  13.1200  13.5494  13.8492  14.3650  14.3754  14.5621
    15.0253  15.2076  15.8558  16.0038  16.1997  16.4511  17.4921  17.5444
    18.2918  18.4034  18.5430  18.9251

          k = 0.0762 0.1320 0.0823 (  5414 PWs)   bands (ev):

   -51.5025 -51.5022 -27.7183 -27.7178 -27.5825 -27.5822 -27.5267 -27.5262
   -10.5429 -10.1201  -9.2413  -8.8375  -2.4060  -1.4093   0.1581   0.2419
     0.5524   0.9339   0.9974   1.2157   1.4601   1.4705   2.1111   2.7350
     3.6568   4.0437   6.0015   6.0538   6.1126   6.2232   6.2302   6.5238
     6.6250   6.8838   9.1677   9.4581   9.7768   9.9795  11.2992  12.1665
    12.4063  12.8209  13.1010  13.5084  13.9772  14.2383  14.2652  14.7266
    15.0996  15.2123  15.8010  16.0810  16.1847  16.4497  17.5107  17.6743
    18.4100  18.4754  18.6889  18.9184

          k = 0.0667 0.1155 0.0823 (  5408 PWs)   bands (ev):

   -51.5041 -51.5038 -27.7218 -27.7213 -27.5663 -27.5661 -27.5225 -27.5221
   -10.5952 -10.1720  -9.2628  -8.8484  -2.4596  -1.4625   0.2726   0.3478
     0.6485   0.8922   0.9530   1.3253   1.5578   1.5629   2.0870   2.7221
     3.7069   4.1725   6.0543   6.0731   6.1368   6.2608   6.2639   6.4819
     6.5317   6.7741   9.0764   9.2963   9.5624   9.8349  11.2281  12.0059
    12.3295  12.9036  13.0882  13.4848  14.0998  14.1368  14.1546  14.9274
    15.1695  15.1918  15.7348  16.1534  16.1683  16.4612  17.5542  17.7921
    18.5092  18.5383  18.8466  18.9411

          k = 0.0571 0.0990 0.0823 (  5420 PWs)   bands (ev):

   -51.5055 -51.5052 -27.7249 -27.7244 -27.5518 -27.5516 -27.5190 -27.5186
   -10.6412 -10.2178  -9.2817  -8.8581  -2.5082  -1.5109   0.3801   0.4481
     0.7416   0.8545   0.9101   1.4339   1.6440   1.6465   2.0585   2.7018
     3.7471   4.2955   6.0895   6.1005   6.1624   6.2945   6.2995   6.4466
     6.4614   6.6776   8.9838   9.1278   9.3787   9.7241  11.1633  11.8335
    12.2159  13.0152  13.0899  13.4760  13.9747  14.0129  14.3524  15.1247
    15.1536  15.2305  15.6697  16.1488  16.2118  16.4896  17.6161  17.8813
    18.5923  18.6124  18.9887  18.9945

          k = 0.0476 0.0825 0.0823 (  5414 PWs)   bands (ev):

   -51.5068 -51.5064 -27.7277 -27.7271 -27.5392 -27.5389 -27.5160 -27.5155
   -10.6807 -10.2572  -9.2979  -8.8665  -2.5508  -1.5536   0.4774   0.5400
     0.8007   0.8512   0.8718   1.5390   1.7128   1.7230   2.0262   2.6746
     3.7783   4.4100   6.0979   6.1220   6.1920   6.3233   6.3346   6.4179
     6.4253   6.6007   8.8861   8.9651   9.2333   9.6392  11.1044  11.6709
    12.0881  13.0963  13.1375  13.4828  13.8601  13.9007  14.5629  15.1087
    15.2782  15.2861  15.6336  16.1303  16.2483  16.5350  17.6899  17.9368
    18.6359  18.7195  18.8711  19.0791

          k = 0.0381 0.0660 0.0823 (  5428 PWs)   bands (ev):

   -51.5078 -51.5074 -27.7299 -27.7294 -27.5286 -27.5283 -27.5135 -27.5131
   -10.7134 -10.2898  -9.3113  -8.8734  -2.5868  -1.5896   0.5619   0.6205
     0.7799   0.8391   0.9268   1.6379   1.7685   1.7862   1.9917   2.6418
     3.8015   4.5130   6.0936   6.1118   6.2247   6.3484   6.3669   6.3910
     6.4273   6.5505   8.7853   8.8185   9.1282   9.5740  11.0514  11.5295
    11.9645  13.0982  13.2599  13.5036  13.7623  13.8040  14.7619  15.0747
    15.3023  15.3533  15.6844  16.1213  16.2658  16.5861  17.7685  17.9644
    18.5945  18.7387  18.8202  19.1523

          k = 0.0286 0.0495 0.0823 (  5414 PWs)   bands (ev):

   -51.5086 -51.5082 -27.7317 -27.7311 -27.5202 -27.5199 -27.5116 -27.5112
   -10.7391 -10.3155  -9.3218  -8.8789  -2.6153  -1.6182   0.6309   0.6867
     0.7570   0.8131   1.0002   1.7268   1.8114   1.8353   1.9573   2.6060
     3.8180   4.6006   6.0782   6.0856   6.2543   6.3534   6.3796   6.3916
     6.4549   6.5276   8.6915   8.6961   9.0572   9.5250  11.0050  11.4167
    11.8575  13.0937  13.3737  13.5325  13.6856  13.7256  14.8854  15.1090
    15.2757  15.3705  15.7893  16.1369  16.2723  16.6281  17.8444  17.9739
    18.4008  18.7717  18.9023  19.1738

          k = 0.0190 0.0330 0.0823 (  5416 PWs)   bands (ev):

   -51.5092 -51.5088 -27.7330 -27.7324 -27.5140 -27.5138 -27.5102 -27.5098
   -10.7575 -10.3339  -9.3293  -8.8828  -2.6360  -1.6390   0.6821   0.7322
     0.7436   0.7942   1.0595   1.8001   1.8420   1.8699   1.9268   2.5718
     3.8290   4.6684   6.0582   6.0600   6.2778   6.3266   6.3995   6.4084
     6.4877   6.5210   8.6039   8.6164   9.0117   9.4905  10.9672  11.3362
    11.7756  13.0858  13.4687  13.5583  13.6340  13.6672  14.8936  15.2230
    15.2386  15.3860  15.8611  16.1882  16.2736  16.6518  17.9083  17.9732
    18.2265  18.8290  18.9577  19.0731

          k = 0.0095 0.0165 0.0823 (  5418 PWs)   bands (ev):

   -51.5095 -51.5092 -27.7338 -27.7332 -27.5104 -27.5101 -27.5094 -27.5090
   -10.7686 -10.3451  -9.3338  -8.8852  -2.6486  -1.6517   0.7137   0.7277
     0.7682   0.7827   1.0985   1.8503   1.8610   1.8898   1.9046   2.5462
     3.8352   4.7115   6.0411   6.0437   6.2929   6.3070   6.4148   6.4185
     6.5119   6.5203   8.5465   8.5684   8.9862   9.4700  10.9419  11.2887
    11.7243  13.0788  13.5349  13.5660  13.6150  13.6292  14.8774  15.1805
    15.3534  15.3959  15.8889  16.2486  16.2730  16.6585  17.9515  17.9673
    18.1134  18.8934  18.9385  18.9956

          k = 0.0000 0.0000 0.0823 (  5416 PWs)   bands (ev):

   -51.5096 -51.5093 -27.7340 -27.7335 -27.5093 -27.5090 -27.5089 -27.5087
   -10.7724 -10.3488  -9.3353  -8.8860  -2.6528  -1.6559   0.7243   0.7244
     0.7783   0.7788   1.1122   1.8679   1.8691   1.8955   1.8960   2.5365
     3.8372   4.7264   6.0349   6.0378   6.2981   6.3001   6.4203   6.4220
     6.5200   6.5210   8.5270   8.5520   8.9779   9.4631  10.9329  11.2731
    11.7068  13.0761  13.5611  13.5629  13.6136  13.6151  14.8702  15.1645
    15.3973  15.3992  15.8952  16.2725  16.2746  16.6585  17.9624  17.9669
    18.0761  18.8951  18.9433  19.0018

     Writing output data file ./tmp/NbS2_bi.save/

     init_run     :      1.27s CPU      1.41s WALL (       1 calls)
     electrons    :    829.46s CPU    836.45s WALL (       1 calls)

     Called by init_run:
     wfcinit      :      0.00s CPU      0.00s WALL (       1 calls)
     wfcinit:atom :      0.10s CPU      0.12s WALL (      81 calls)
     wfcinit:wfcr :     18.82s CPU     18.96s WALL (      81 calls)
     potinit      :      0.13s CPU      0.15s WALL (       1 calls)
     hinit0       :      0.64s CPU      0.64s WALL (       1 calls)

     Called by electrons:
     c_bands      :    829.45s CPU    836.44s WALL (       1 calls)
     v_of_rho     :      0.03s CPU      0.04s WALL (       1 calls)
     v_h          :      0.02s CPU      0.02s WALL (       1 calls)
     v_xc         :      0.01s CPU      0.02s WALL (       1 calls)
     newd         :      0.44s CPU      0.55s WALL (       1 calls)
     PAW_pot      :      0.06s CPU      0.06s WALL (       1 calls)

     Called by c_bands:
     init_us_2    :      0.11s CPU      0.15s WALL (      81 calls)
     cegterg      :    809.62s CPU    814.68s WALL (     238 calls)

     Called by sum_band:

     Called by *egterg:
     cdiaghg      :     28.44s CPU     28.49s WALL (    4138 calls)
     cegterg:over :    114.04s CPU    114.28s WALL (    4057 calls)
     cegterg:upda :     67.62s CPU     67.69s WALL (    4057 calls)
     cegterg:last :    234.13s CPU    234.35s WALL (    2036 calls)
     h_psi        :    321.57s CPU    326.11s WALL (    4376 calls)
     s_psi        :     41.82s CPU     41.88s WALL (    4376 calls)
     g_psi        :      1.36s CPU      1.37s WALL (    4057 calls)

     Called by h_psi:
     h_psi:calbec :     48.97s CPU     49.21s WALL (    4376 calls)
     vloc_psi     :    230.51s CPU    234.73s WALL (    4376 calls)
     add_vuspsi   :     39.50s CPU     39.58s WALL (    4376 calls)

     General routines
     calbec       :     48.94s CPU     49.19s WALL (    4376 calls)
     fft          :      0.09s CPU      0.09s WALL (       6 calls)
     ffts         :      0.00s CPU      0.00s WALL (       1 calls)
     fftw         :    206.68s CPU    210.46s WALL (  247026 calls)
     interpolate  :      0.01s CPU      0.02s WALL (       1 calls)
     davcio       :      0.22s CPU      1.96s WALL (     162 calls)

     Parallel routines
     fft_scatt_xy :     21.10s CPU     21.44s WALL (  247033 calls)
     fft_scatt_yz :     17.20s CPU     17.55s WALL (  247033 calls)

     PAW routines
     PAW_pot      :      0.06s CPU      0.06s WALL (       1 calls)

     PWSCF        :  13m52.46s CPU  14m 2.15s WALL


   This run was terminated on:   2:50:46  15Jun2021            

=------------------------------------------------------------------------------=
   JOB DONE.
=------------------------------------------------------------------------------=
