
     Program PWSCF v.6.6 starts on 14Jun2021 at 22:42: 9 

     This program is part of the open-source Quantum ESPRESSO suite
     for quantum simulation of materials; please cite
         "P. Giannozzi et al., J. Phys.:Condens. Matter 21 395502 (2009);
         "P. Giannozzi et al., J. Phys.:Condens. Matter 29 465901 (2017);
          URL http://www.quantum-espresso.org", 
     in publications or presentations arising from this work. More details at
     http://www.quantum-espresso.org/quote

     Parallel version (MPI), running on     2 processors

     MPI processes distributed on     1 nodes
     R & G space division:  proc/nbgrp/npool/nimage =       2
     Fft bands division:     nmany     =       1
     Waiting for input...
     Reading input from standard input

     Current dimensions of program PWSCF are:
     Max number of different atomic species (ntypx) = 10
     Max number of k-points (npk) =  40000
     Max angular momentum in pseudopotentials (lmaxx) =  3
     file Nb.pz-spn-kjpaw_psl.1.0.0.UPF: wavefunction(s)  4S 4P 4D renormalized
     file S.pz-n-kjpaw_psl.0.1.UPF: wavefunction(s)  3P renormalized

     Subspace diagonalization in iterative solution of the eigenvalue problem:
     a serial algorithm will be used


     Parallelization info
     --------------------
     sticks:   dense  smooth     PW     G-vecs:    dense   smooth      PW
     Min         534     210     60                55224    14002    2322
     Max         535     211     61                55225    14021    2341
     Sum        1069     421    121               110449    28023    4663



     bravais-lattice index     =            4
     lattice parameter (alat)  =       6.2006  a.u.
     unit-cell volume          =     817.9674 (a.u.)^3
     number of atoms/cell      =            6
     number of atomic types    =            2
     number of electrons       =        50.00
     number of Kohn-Sham states=           60
     kinetic-energy cutoff     =      40.0000  Ry
     charge density cutoff     =     400.0000  Ry
     convergence threshold     =      1.0E-08
     mixing beta               =       0.7000
     number of iterations used =            8  plain     mixing
     Exchange-correlation= SLA PZ NOGX NOGC
                           (   1   1   0   0   0   0   0)
     nstep                     =           50


     celldm(1)=   6.200569  celldm(2)=   0.000000  celldm(3)=   3.961965
     celldm(4)=   0.000000  celldm(5)=   0.000000  celldm(6)=   0.000000

     crystal axes: (cart. coord. in units of alat)
               a(1) = (   1.000000   0.000000   0.000000 )  
               a(2) = (  -0.500000   0.866025   0.000000 )  
               a(3) = (   0.000000   0.000000   3.961965 )  

     reciprocal axes: (cart. coord. in units 2 pi/alat)
               b(1) = (  1.000000  0.577350 -0.000000 )  
               b(2) = (  0.000000  1.154701  0.000000 )  
               b(3) = (  0.000000 -0.000000  0.252400 )  


     PseudoPot. # 1 for Nb read from file:
     ../Nb.pz-spn-kjpaw_psl.1.0.0.UPF
     MD5 check sum: 38c2e04b3cc915696ca8dc9f46a23270
     Pseudo is Projector augmented-wave + core cor, Zval = 13.0
     Generated using "atomic" code by A. Dal Corso v.6.2.2
     Shape of augmentation charge: PSQ
     Using radial grid of 1227 points,  6 beta functions with: 
                l(1) =   0
                l(2) =   0
                l(3) =   1
                l(4) =   1
                l(5) =   2
                l(6) =   2
     Q(r) pseudized with 0 coefficients 


     PseudoPot. # 2 for S  read from file:
     ../S.pz-n-kjpaw_psl.0.1.UPF
     MD5 check sum: c0b1682311cf098e03f7841691d9a679
     Pseudo is Projector augmented-wave + core cor, Zval =  6.0
     Generated using "atomic" code by A. Dal Corso v.5.0.2 svn rev. 9415
     Shape of augmentation charge: PSQ
     Using radial grid of 1151 points,  4 beta functions with: 
                l(1) =   0
                l(2) =   0
                l(3) =   1
                l(4) =   1
     Q(r) pseudized with 0 coefficients 


     atomic species   valence    mass     pseudopotential
        Nb            13.00    92.90600     Nb( 1.00)
        S              6.00    32.06500     S ( 1.00)

      6 Sym. Ops. (no inversion) found


                                    s                        frac. trans.

      isym =  1     identity                                     

 cryst.   s( 1) = (     1          0          0      )
                  (     0          1          0      )
                  (     0          0          1      )

 cart.    s( 1) = (  1.0000000  0.0000000  0.0000000 )
                  (  0.0000000  1.0000000  0.0000000 )
                  (  0.0000000  0.0000000  1.0000000 )


      isym =  2     120 deg rotation - cryst. axis [0,0,1]       

 cryst.   s( 2) = (     0          1          0      )
                  (    -1         -1          0      )
                  (     0          0          1      )

 cart.    s( 2) = ( -0.5000000 -0.8660254  0.0000000 )
                  (  0.8660254 -0.5000000  0.0000000 )
                  (  0.0000000  0.0000000  1.0000000 )


      isym =  3     120 deg rotation - cryst. axis [0,0,-1]      

 cryst.   s( 3) = (    -1         -1          0      )
                  (     1          0          0      )
                  (     0          0          1      )

 cart.    s( 3) = ( -0.5000000  0.8660254  0.0000000 )
                  ( -0.8660254 -0.5000000  0.0000000 )
                  (  0.0000000  0.0000000  1.0000000 )


      isym =  4     inv. 180 deg rotation - cart. axis [1,0,0]   

 cryst.   s( 4) = (    -1          0          0      )
                  (     1          1          0      )
                  (     0          0          1      )

 cart.    s( 4) = ( -1.0000000  0.0000000  0.0000000 )
                  (  0.0000000  1.0000000  0.0000000 )
                  (  0.0000000  0.0000000  1.0000000 )


      isym =  5     inv. 180 deg rotation - cryst. axis [0,1,0]  

 cryst.   s( 5) = (     1          1          0      )
                  (     0         -1          0      )
                  (     0          0          1      )

 cart.    s( 5) = (  0.5000000  0.8660254  0.0000000 )
                  (  0.8660254 -0.5000000  0.0000000 )
                  (  0.0000000  0.0000000  1.0000000 )


      isym =  6     inv. 180 deg rotation - cryst. axis [1,1,0]  

 cryst.   s( 6) = (     0         -1          0      )
                  (    -1          0          0      )
                  (     0          0          1      )

 cart.    s( 6) = (  0.5000000 -0.8660254  0.0000000 )
                  ( -0.8660254 -0.5000000  0.0000000 )
                  (  0.0000000  0.0000000  1.0000000 )


     point group C_3v (3m)  
     there are  3 classes
     the character table:

       E     2C3   3s_v 
A_1    1.00  1.00  1.00
A_2    1.00  1.00 -1.00
E      2.00 -1.00  0.00

     the symmetry operations in each class and the name of the first element:

     E        1
          identity                                               
     2C3      2    3
          120 deg rotation - cryst. axis [0,0,1]                 
     3s_v     4    5    6
          inv. 180 deg rotation - cart. axis [1,0,0]             

   Cartesian axes

     site n.     atom                  positions (alat units)
         1           S   tau(   1) = (   0.0000000   0.5773503   1.4932768  )
         2           Nb  tau(   2) = (   0.0000000   0.0000000   1.0094618  )
         3           S   tau(   3) = (   0.0000000   0.5773503   0.5321904  )
         4           S   tau(   4) = (   0.5000000   0.2886751   2.5511139  )
         5           Nb  tau(   5) = (   0.0000000   0.0000000   3.0283905  )
         6           S   tau(   6) = (   0.5000000   0.2886751   3.5056620  )

   Crystallographic axes

     site n.     atom                  positions (cryst. coord.)
         1           S   tau(   1) = (  0.3333333  0.6666667  0.3769031  )
         2           Nb  tau(   2) = (  0.0000000  0.0000000  0.2547882  )
         3           S   tau(   3) = (  0.3333333  0.6666667  0.1343248  )
         4           S   tau(   4) = (  0.6666667  0.3333333  0.6439012  )
         5           Nb  tau(   5) = (  0.0000000  0.0000000  0.7643658  )
         6           S   tau(   6) = (  0.6666667  0.3333333  0.8848291  )

     number of k points=    19  Methfessel-Paxton smearing, width (Ry)=  0.0200
                       cart. coord. in units 2pi/alat
        k(    1) = (   0.0000000   0.0000000   0.0000000), wk =   0.0138889
        k(    2) = (   0.0000000   0.0962250   0.0000000), wk =   0.0833333
        k(    3) = (   0.0000000   0.1924501   0.0000000), wk =   0.0833333
        k(    4) = (   0.0000000   0.2886751   0.0000000), wk =   0.0833333
        k(    5) = (   0.0000000   0.3849002   0.0000000), wk =   0.0833333
        k(    6) = (   0.0000000   0.4811252   0.0000000), wk =   0.0833333
        k(    7) = (   0.0000000  -0.5773503   0.0000000), wk =   0.0416667
        k(    8) = (   0.0833333   0.1443376   0.0000000), wk =   0.0833333
        k(    9) = (   0.0833333   0.2405626   0.0000000), wk =   0.1666667
        k(   10) = (   0.0833333   0.3367877   0.0000000), wk =   0.1666667
        k(   11) = (   0.0833333   0.4330127   0.0000000), wk =   0.1666667
        k(   12) = (   0.0833333   0.5292377   0.0000000), wk =   0.1666667
        k(   13) = (   0.1666667   0.2886751   0.0000000), wk =   0.0833333
        k(   14) = (   0.1666667   0.3849002   0.0000000), wk =   0.1666667
        k(   15) = (   0.1666667   0.4811252   0.0000000), wk =   0.1666667
        k(   16) = (   0.1666667   0.5773503   0.0000000), wk =   0.0833333
        k(   17) = (   0.2500000   0.4330127   0.0000000), wk =   0.0833333
        k(   18) = (   0.2500000   0.5292377   0.0000000), wk =   0.1666667
        k(   19) = (   0.3333333   0.5773503   0.0000000), wk =   0.0277778

                       cryst. coord.
        k(    1) = (   0.0000000   0.0000000   0.0000000), wk =   0.0138889
        k(    2) = (   0.0000000   0.0833333   0.0000000), wk =   0.0833333
        k(    3) = (   0.0000000   0.1666667   0.0000000), wk =   0.0833333
        k(    4) = (   0.0000000   0.2500000   0.0000000), wk =   0.0833333
        k(    5) = (   0.0000000   0.3333333   0.0000000), wk =   0.0833333
        k(    6) = (   0.0000000   0.4166667   0.0000000), wk =   0.0833333
        k(    7) = (   0.0000000  -0.5000000   0.0000000), wk =   0.0416667
        k(    8) = (   0.0833333   0.0833333   0.0000000), wk =   0.0833333
        k(    9) = (   0.0833333   0.1666667   0.0000000), wk =   0.1666667
        k(   10) = (   0.0833333   0.2500000   0.0000000), wk =   0.1666667
        k(   11) = (   0.0833333   0.3333333   0.0000000), wk =   0.1666667
        k(   12) = (   0.0833333   0.4166667   0.0000000), wk =   0.1666667
        k(   13) = (   0.1666667   0.1666667   0.0000000), wk =   0.0833333
        k(   14) = (   0.1666667   0.2500000   0.0000000), wk =   0.1666667
        k(   15) = (   0.1666667   0.3333333   0.0000000), wk =   0.1666667
        k(   16) = (   0.1666667   0.4166667   0.0000000), wk =   0.0833333
        k(   17) = (   0.2500000   0.2500000   0.0000000), wk =   0.0833333
        k(   18) = (   0.2500000   0.3333333   0.0000000), wk =   0.1666667
        k(   19) = (   0.3333333   0.3333333   0.0000000), wk =   0.0277778

     Dense  grid:   110449 G-vectors     FFT dimensions: (  40,  40, 160)

     Smooth grid:    28023 G-vectors     FFT dimensions: (  25,  25, 100)

     Dynamical RAM for                 wfc:       1.60 MB

     Dynamical RAM for     wfc (w. buffer):      31.99 MB

     Dynamical RAM for           str. fact:       1.69 MB

     Dynamical RAM for           local pot:       0.00 MB

     Dynamical RAM for          nlocal pot:       1.81 MB

     Dynamical RAM for                qrad:       6.42 MB

     Dynamical RAM for          rho,v,vnew:       5.46 MB

     Dynamical RAM for               rhoin:       1.82 MB

     Dynamical RAM for            rho*nmix:      13.48 MB

     Dynamical RAM for           G-vectors:       3.27 MB

     Dynamical RAM for          h,s,v(r/c):       0.66 MB

     Dynamical RAM for          <psi|beta>:       0.06 MB

     Dynamical RAM for                 psi:       3.20 MB

     Dynamical RAM for                hpsi:       3.20 MB

     Dynamical RAM for                spsi:       3.20 MB

     Dynamical RAM for      wfcinit/wfcrot:       3.28 MB

     Dynamical RAM for           addusdens:     160.11 MB

     Dynamical RAM for          addusforce:     165.60 MB

     Dynamical RAM for         addusstress:     169.38 MB

     Estimated static dynamical RAM per process >      73.35 MB

     Estimated max dynamical RAM per process >     242.72 MB

     Estimated total dynamical RAM >     485.44 MB

     Initial potential from superposition of free atoms

     starting charge   49.99775, renormalised to   50.00000
     Starting wfcs are   42 randomized atomic wfcs +   18 random wfcs
     Checking if some PAW data can be deallocated... 

     total cpu time spent up to now is        9.0 secs

     Self-consistent Calculation

     iteration #  1     ecut=    40.00 Ry     beta= 0.70
     Davidson diagonalization with overlap
     ethr =  1.00E-02,  avg # of iterations =  6.9

     Threshold (ethr) on eigenvalues was too large:
     Diagonalizing with lowered threshold

     Davidson diagonalization with overlap
     ethr =  5.21E-04,  avg # of iterations =  2.4

     total cpu time spent up to now is       35.6 secs

     total energy              =    -907.82155572 Ry
     estimated scf accuracy    <       0.26061148 Ry

     iteration #  2     ecut=    40.00 Ry     beta= 0.70
     Davidson diagonalization with overlap
     ethr =  5.21E-04,  avg # of iterations =  4.7

     total cpu time spent up to now is       47.1 secs

     total energy              =    -907.58288818 Ry
     estimated scf accuracy    <       1.60193191 Ry

     iteration #  3     ecut=    40.00 Ry     beta= 0.70
     Davidson diagonalization with overlap
     ethr =  5.21E-04,  avg # of iterations =  6.2

     total cpu time spent up to now is       58.5 secs

     total energy              =    -907.39020666 Ry
     estimated scf accuracy    <      12.85017658 Ry

     iteration #  4     ecut=    40.00 Ry     beta= 0.70
     Davidson diagonalization with overlap
     ethr =  5.21E-04,  avg # of iterations =  5.1

     total cpu time spent up to now is       69.2 secs

     total energy              =    -907.90731250 Ry
     estimated scf accuracy    <       0.17583325 Ry

     iteration #  5     ecut=    40.00 Ry     beta= 0.70
     Davidson diagonalization with overlap
     ethr =  3.52E-04,  avg # of iterations =  2.1

     total cpu time spent up to now is       79.8 secs

     total energy              =    -907.90875657 Ry
     estimated scf accuracy    <       0.12307593 Ry

     iteration #  6     ecut=    40.00 Ry     beta= 0.70
     Davidson diagonalization with overlap
     ethr =  2.46E-04,  avg # of iterations =  1.4

     total cpu time spent up to now is       88.2 secs

     total energy              =    -907.91559874 Ry
     estimated scf accuracy    <       0.04020208 Ry

     iteration #  7     ecut=    40.00 Ry     beta= 0.70
     Davidson diagonalization with overlap
     ethr =  8.04E-05,  avg # of iterations =  2.1

     total cpu time spent up to now is       97.1 secs

     total energy              =    -907.91658292 Ry
     estimated scf accuracy    <       0.00423120 Ry

     iteration #  8     ecut=    40.00 Ry     beta= 0.70
     Davidson diagonalization with overlap
     ethr =  8.46E-06,  avg # of iterations =  6.5

     total cpu time spent up to now is      107.3 secs

     total energy              =    -907.91698269 Ry
     estimated scf accuracy    <       0.00024989 Ry

     iteration #  9     ecut=    40.00 Ry     beta= 0.70
     Davidson diagonalization with overlap
     ethr =  5.00E-07,  avg # of iterations =  2.7

     total cpu time spent up to now is      116.7 secs

     total energy              =    -907.91701458 Ry
     estimated scf accuracy    <       0.00107298 Ry

     iteration # 10     ecut=    40.00 Ry     beta= 0.70
     Davidson diagonalization with overlap
     ethr =  5.00E-07,  avg # of iterations =  1.0

     total cpu time spent up to now is      125.1 secs

     total energy              =    -907.91703274 Ry
     estimated scf accuracy    <       0.00001809 Ry

     iteration # 11     ecut=    40.00 Ry     beta= 0.70
     Davidson diagonalization with overlap
     ethr =  3.62E-08,  avg # of iterations =  1.0

     total cpu time spent up to now is      133.9 secs

     total energy              =    -907.91703373 Ry
     estimated scf accuracy    <       0.00000437 Ry

     iteration # 12     ecut=    40.00 Ry     beta= 0.70
     Davidson diagonalization with overlap
     ethr =  8.74E-09,  avg # of iterations =  1.0

     total cpu time spent up to now is      142.5 secs

     total energy              =    -907.91703385 Ry
     estimated scf accuracy    <       0.00000001 Ry

     iteration # 13     ecut=    40.00 Ry     beta= 0.70
     Davidson diagonalization with overlap
     ethr =  2.23E-11,  avg # of iterations =  2.6

     total cpu time spent up to now is      152.9 secs

     End of self-consistent calculation

          k = 0.0000 0.0000 0.0000 (  3517 PWs)   bands (ev):

   -46.3721 -46.3592 -22.5835 -22.5778 -22.3550 -22.3550 -22.3461 -22.3461
    -5.3176  -5.1631  -4.0589  -3.8077   2.7584   3.4763   6.0497   6.0497
     6.0775   6.1014   6.1014   7.1558   7.1558   7.1995   7.1995   7.7459
     8.6911   9.6206  11.3865  11.3865  11.4705  11.4705  11.5635  11.5635
    11.6278  11.6278  13.7321  13.9304  16.5177  16.6130  16.8314  17.7529
    18.9058  18.9058  18.9653  18.9653  20.4526  20.6963  20.6963  21.2877
    21.2877  21.5559  22.6703  23.4129  23.4726  23.4726  24.0142  24.2667
    24.2667  24.5015  24.5015  24.9309

     occupation numbers 
     1.0000   1.0000   1.0000   1.0000   1.0000   1.0000   1.0000   1.0000
     1.0000   1.0000   1.0000   1.0000   1.0000   1.0000   1.0000   1.0000
     1.0000   1.0000   1.0000   1.0000   1.0000   1.0000   1.0000   1.0084
    -0.0281  -0.0000  -0.0000  -0.0000  -0.0000  -0.0000  -0.0000  -0.0000
    -0.0000  -0.0000  -0.0000  -0.0000  -0.0000  -0.0000  -0.0000  -0.0000
    -0.0000  -0.0000  -0.0000  -0.0000  -0.0000  -0.0000  -0.0000  -0.0000
    -0.0000  -0.0000  -0.0000  -0.0000  -0.0000  -0.0000  -0.0000  -0.0000
    -0.0000  -0.0000  -0.0000  -0.0000

          k = 0.0000 0.0962 0.0000 (  3505 PWs)   bands (ev):

   -46.3691 -46.3562 -22.5770 -22.5712 -22.3861 -22.3774 -22.3619 -22.3530
    -5.2220  -5.0686  -4.0248  -3.7820   2.8730   3.5888   5.7997   5.8415
     5.8831   6.1459   6.1971   6.7566   6.9925   7.0415   7.2231   7.9272
     8.6778   9.4196  11.3024  11.3432  11.3958  11.4625  11.5469  11.5477
    11.5882  11.6770  14.2144  14.4060  16.6864  17.0808  17.2350  17.7894
    18.4359  18.7879  19.1754  19.2868  19.9386  20.5782  20.6429  20.7288
    21.3359  21.3615  22.6766  22.7343  23.5813  23.7311  23.9199  24.2724
    24.5268  24.5691  24.6963  24.9476

     occupation numbers 
     1.0000   1.0000   1.0000   1.0000   1.0000   1.0000   1.0000   1.0000
     1.0000   1.0000   1.0000   1.0000   1.0000   1.0000   1.0000   1.0000
     1.0000   1.0000   1.0000   1.0000   1.0000   1.0000   1.0000   1.0343
    -0.0302  -0.0000  -0.0000  -0.0000  -0.0000  -0.0000  -0.0000  -0.0000
    -0.0000  -0.0000  -0.0000  -0.0000  -0.0000  -0.0000  -0.0000  -0.0000
    -0.0000  -0.0000  -0.0000  -0.0000  -0.0000  -0.0000  -0.0000  -0.0000
    -0.0000  -0.0000  -0.0000  -0.0000  -0.0000  -0.0000  -0.0000  -0.0000
    -0.0000  -0.0000  -0.0000  -0.0000

          k = 0.0000 0.1925 0.0000 (  3483 PWs)   bands (ev):

   -46.3608 -46.3479 -22.5593 -22.5532 -22.4700 -22.4620 -22.3805 -22.3718
    -4.9517  -4.8028  -3.9283  -3.7095   3.1702   3.8673   5.2364   5.2864
     5.4345   6.0777   6.4074   6.4518   6.6135   6.6772   7.1331   7.9075
     8.5320   8.8989  10.8496  11.2717  11.2952  11.3910  11.5116  11.6014
    12.0302  12.1417  15.2171  15.5596  16.9959  17.3806  17.8241  18.0934
    18.1468  18.3505  19.1707  19.7141  19.9182  20.1277  20.4087  20.6544
    21.1325  21.5245  21.7385  22.2840  22.5676  23.6120  23.9016  24.1054
    24.2643  24.6093  25.5748  26.3374

     occupation numbers 
     1.0000   1.0000   1.0000   1.0000   1.0000   1.0000   1.0000   1.0000
     1.0000   1.0000   1.0000   1.0000   1.0000   1.0000   1.0000   1.0000
     1.0000   1.0000   1.0000   1.0000   1.0000   1.0000   1.0000   1.0321
    -0.0123  -0.0032  -0.0000  -0.0000  -0.0000  -0.0000  -0.0000  -0.0000
    -0.0000  -0.0000  -0.0000  -0.0000  -0.0000  -0.0000  -0.0000  -0.0000
    -0.0000  -0.0000  -0.0000  -0.0000  -0.0000  -0.0000  -0.0000  -0.0000
    -0.0000  -0.0000  -0.0000  -0.0000  -0.0000  -0.0000  -0.0000  -0.0000
    -0.0000  -0.0000  -0.0000  -0.0000

          k = 0.0000 0.2887 0.0000 (  3487 PWs)   bands (ev):

   -46.3496 -46.3366 -22.5828 -22.5757 -22.5348 -22.5286 -22.4059 -22.3973
    -4.5562  -4.4183  -3.7870  -3.6055   3.4518   3.9949   4.7635   4.8294
     4.9177   5.3786   6.1847   6.2419   6.7627   6.8301   6.8562   7.6585
     8.1303   8.3412  10.7617  11.1425  11.2619  11.5366  11.6248  12.0331
    12.4946  12.6507  15.6968  16.5623  16.7304  17.2710  17.4981  17.6658
    18.2395  18.5807  19.2451  19.7637  20.3957  20.6698  20.9384  21.0329
    21.0833  21.3246  21.7239  21.8726  21.9890  23.0577  23.1854  23.7038
    24.8466  25.4266  26.0832  26.4564

     occupation numbers 
     1.0000   1.0000   1.0000   1.0000   1.0000   1.0000   1.0000   1.0000
     1.0000   1.0000   1.0000   1.0000   1.0000   1.0000   1.0000   1.0000
     1.0000   1.0000   1.0000   1.0000   1.0000   1.0000   1.0000   1.0026
     0.9067   0.3315  -0.0000  -0.0000  -0.0000  -0.0000  -0.0000  -0.0000
    -0.0000  -0.0000  -0.0000  -0.0000  -0.0000  -0.0000  -0.0000  -0.0000
    -0.0000  -0.0000  -0.0000  -0.0000  -0.0000  -0.0000  -0.0000  -0.0000
    -0.0000  -0.0000  -0.0000  -0.0000  -0.0000  -0.0000  -0.0000  -0.0000
    -0.0000  -0.0000  -0.0000  -0.0000

          k = 0.0000 0.3849 0.0000 (  3499 PWs)   bands (ev):

   -46.3383 -46.3252 -22.6934 -22.6872 -22.5103 -22.5037 -22.4311 -22.4227
    -4.1185  -4.0028  -3.6309  -3.4956   3.3641   3.6090   4.3941   4.6622
     4.7516   4.8399   5.8304   5.8930   6.5921   7.0870   7.1717   7.4061
     7.8413   8.0535  11.0600  11.1834  11.2729  11.7600  11.9128  12.4752
    12.8299  13.0460  15.4974  15.9721  16.3271  16.6598  16.7495  17.7673
    18.2196  19.0215  19.1593  19.8901  19.9714  20.4471  20.7780  21.5362
    21.5628  21.7393  22.8075  22.8651  22.9796  23.3213  23.3548  23.6259
    25.2534  25.6057  26.0152  26.3936

     occupation numbers 
     1.0000   1.0000   1.0000   1.0000   1.0000   1.0000   1.0000   1.0000
     1.0000   1.0000   1.0000   1.0000   1.0000   1.0000   1.0000   1.0000
     1.0000   1.0000   1.0000   1.0000   1.0000   1.0000   1.0000   1.0000
     1.0215   1.0025  -0.0000  -0.0000  -0.0000  -0.0000  -0.0000  -0.0000
    -0.0000  -0.0000  -0.0000  -0.0000  -0.0000  -0.0000  -0.0000  -0.0000
    -0.0000  -0.0000  -0.0000  -0.0000  -0.0000  -0.0000  -0.0000  -0.0000
    -0.0000  -0.0000  -0.0000  -0.0000  -0.0000  -0.0000  -0.0000  -0.0000
    -0.0000  -0.0000  -0.0000  -0.0000

          k = 0.0000 0.4811 0.0000 (  3496 PWs)   bands (ev):

   -46.3300 -46.3168 -22.7730 -22.7675 -22.4923 -22.4855 -22.4495 -22.4412
    -3.7574  -3.6772  -3.5012  -3.4121   3.0911   3.2117   4.0157   4.3306
     4.6675   4.7624   5.6009   5.6659   6.4430   7.2492   7.2921   7.4000
     7.9048   8.1694  11.3572  11.4049  11.5230  11.9060  12.1308  12.7501
    13.0090  13.2753  14.6164  15.3190  16.1654  16.4390  16.5112  17.2769
    17.8870  18.4598  18.9694  19.1187  19.5376  19.9949  21.2614  22.2101
    22.4321  23.3163  23.6193  23.8736  24.0497  24.1584  24.2611  24.5635
    25.4367  25.7868  25.9898  26.2651

     occupation numbers 
     1.0000   1.0000   1.0000   1.0000   1.0000   1.0000   1.0000   1.0000
     1.0000   1.0000   1.0000   1.0000   1.0000   1.0000   1.0000   1.0000
     1.0000   1.0000   1.0000   1.0000   1.0000   1.0000   1.0000   1.0000
     1.0318   0.8278  -0.0000  -0.0000  -0.0000  -0.0000  -0.0000  -0.0000
    -0.0000  -0.0000  -0.0000  -0.0000  -0.0000  -0.0000  -0.0000  -0.0000
    -0.0000  -0.0000  -0.0000  -0.0000  -0.0000  -0.0000  -0.0000  -0.0000
    -0.0000  -0.0000  -0.0000  -0.0000  -0.0000  -0.0000  -0.0000  -0.0000
    -0.0000  -0.0000  -0.0000  -0.0000

          k = 0.0000-0.5774 0.0000 (  3496 PWs)   bands (ev):

   -46.3269 -46.3138 -22.8019 -22.7966 -22.4856 -22.4788 -22.4562 -22.4479
    -3.6112  -3.5578  -3.4473  -3.3806   2.9716   3.0559   3.8747   4.1774
     4.6410   4.6997   5.5219   5.5876   6.3988   7.1983   7.3579   7.4761
     8.0279   8.2919  11.4614  11.4885  11.8878  11.9078  12.1694  12.8512
    13.0625  13.3479  14.0266  15.0793  16.0008  16.5884  16.7777  16.8077
    17.7000  18.1122  18.7747  19.0268  19.0974  19.6503  21.7184  22.5293
    22.8151  23.7541  24.1351  24.5668  24.5836  24.6554  24.9739  25.2129
    25.4992  25.6791  25.7531  25.8777

     occupation numbers 
     1.0000   1.0000   1.0000   1.0000   1.0000   1.0000   1.0000   1.0000
     1.0000   1.0000   1.0000   1.0000   1.0000   1.0000   1.0000   1.0000
     1.0000   1.0000   1.0000   1.0000   1.0000   1.0000   1.0000   1.0001
     1.0188   0.4809  -0.0000  -0.0000  -0.0000  -0.0000  -0.0000  -0.0000
    -0.0000  -0.0000  -0.0000  -0.0000  -0.0000  -0.0000  -0.0000  -0.0000
    -0.0000  -0.0000  -0.0000  -0.0000  -0.0000  -0.0000  -0.0000  -0.0000
    -0.0000  -0.0000  -0.0000  -0.0000  -0.0000  -0.0000  -0.0000  -0.0000
    -0.0000  -0.0000  -0.0000  -0.0000

          k = 0.0833 0.1443 0.0000 (  3479 PWs)   bands (ev):

   -46.3635 -46.3505 -22.5649 -22.5589 -22.4419 -22.4337 -22.3762 -22.3674
    -5.0389  -4.8883  -3.9594  -3.7327   3.0816   3.7891   5.4041   5.4501
     5.5864   6.3141   6.3176   6.3618   6.6270   6.6714   7.2936   7.9964
     8.6030   9.0554  10.9627  11.2643  11.3171  11.3531  11.3670  11.5989
    11.9484  12.0617  14.9815  15.2268  16.9291  17.5134  17.8102  17.9106
    18.0651  18.5558  19.3801  19.6940  19.7075  19.7499  20.3321  20.8186
    20.9358  21.4235  22.4176  22.6407  22.8250  23.5539  23.5925  24.2081
    24.4571  24.7000  25.1758  25.9611

     occupation numbers 
     1.0000   1.0000   1.0000   1.0000   1.0000   1.0000   1.0000   1.0000
     1.0000   1.0000   1.0000   1.0000   1.0000   1.0000   1.0000   1.0000
     1.0000   1.0000   1.0000   1.0000   1.0000   1.0000   1.0000   1.0305
    -0.0349  -0.0002  -0.0000  -0.0000  -0.0000  -0.0000  -0.0000  -0.0000
    -0.0000  -0.0000  -0.0000  -0.0000  -0.0000  -0.0000  -0.0000  -0.0000
    -0.0000  -0.0000  -0.0000  -0.0000  -0.0000  -0.0000  -0.0000  -0.0000
    -0.0000  -0.0000  -0.0000  -0.0000  -0.0000  -0.0000  -0.0000  -0.0000
    -0.0000  -0.0000  -0.0000  -0.0000

          k = 0.0833 0.2406 0.0000 (  3492 PWs)   bands (ev):

   -46.3537 -46.3407 -22.5440 -22.5376 -22.5361 -22.5289 -22.4022 -22.3936
    -4.7052  -4.5623  -3.8397  -3.6437   3.3949   4.0407   4.9100   4.9430
     5.1775   5.6924   6.0639   6.1908   6.5772   6.6370   7.2297   7.8752
     8.3336   8.5107  10.6866  11.1406  11.2464  11.3230  11.5948  11.6907
    12.4673  12.5976  15.8669  16.4453  17.0355  17.3393  17.5830  18.0680
    18.1294  18.5670  19.3234  19.4918  19.9643  20.1100  20.1452  20.4902
    21.0200  21.7950  21.8231  22.2629  22.4122  22.7818  23.2066  24.4609
    24.6269  25.2455  25.6499  27.0134

     occupation numbers 
     1.0000   1.0000   1.0000   1.0000   1.0000   1.0000   1.0000   1.0000
     1.0000   1.0000   1.0000   1.0000   1.0000   1.0000   1.0000   1.0000
     1.0000   1.0000   1.0000   1.0000   1.0000   1.0000   1.0000   1.0273
     0.3536   0.0035  -0.0000  -0.0000  -0.0000  -0.0000  -0.0000  -0.0000
    -0.0000  -0.0000  -0.0000  -0.0000  -0.0000  -0.0000  -0.0000  -0.0000
    -0.0000  -0.0000  -0.0000  -0.0000  -0.0000  -0.0000  -0.0000  -0.0000
    -0.0000  -0.0000  -0.0000  -0.0000  -0.0000  -0.0000  -0.0000  -0.0000
    -0.0000  -0.0000  -0.0000  -0.0000

          k = 0.0833 0.3368 0.0000 (  3496 PWs)   bands (ev):

   -46.3424 -46.3294 -22.6430 -22.6365 -22.5193 -22.5128 -22.4324 -22.4240
    -4.2858  -4.1594  -3.6886  -3.5344   3.5073   3.8682   4.6440   4.6935
     4.8324   5.0001   5.6698   5.8834   6.7769   6.8523   6.9716   7.6002
     7.9996   8.1378  10.7277  11.1498  11.3473  11.6373  11.7364  12.0835
    12.9038  12.9919  15.9468  16.4940  16.5700  17.0995  17.3376  17.8570
    18.4089  18.7666  19.2644  19.5562  19.8250  20.2921  20.5296  20.6892
    21.0252  21.5836  22.4179  22.4918  22.5837  22.8350  23.4361  24.1804
    25.0673  26.1112  26.2057  26.6171

     occupation numbers 
     1.0000   1.0000   1.0000   1.0000   1.0000   1.0000   1.0000   1.0000
     1.0000   1.0000   1.0000   1.0000   1.0000   1.0000   1.0000   1.0000
     1.0000   1.0000   1.0000   1.0000   1.0000   1.0000   1.0000   1.0011
     1.0297   0.8931  -0.0000  -0.0000  -0.0000  -0.0000  -0.0000  -0.0000
    -0.0000  -0.0000  -0.0000  -0.0000  -0.0000  -0.0000  -0.0000  -0.0000
    -0.0000  -0.0000  -0.0000  -0.0000  -0.0000  -0.0000  -0.0000  -0.0000
    -0.0000  -0.0000  -0.0000  -0.0000  -0.0000  -0.0000  -0.0000  -0.0000
    -0.0000  -0.0000  -0.0000  -0.0000

          k = 0.0833 0.4330 0.0000 (  3501 PWs)   bands (ev):

   -46.3326 -46.3195 -22.7339 -22.7281 -22.4980 -22.4913 -22.4584 -22.4502
    -3.8801  -3.7831  -3.5414  -3.4344   3.2908   3.4549   4.1550   4.4215
     4.7138   4.8430   5.5192   5.6997   6.6706   6.8667   6.9757   7.3382
     7.9818   8.1640  11.0370  11.3506  11.5845  11.8203  12.0414  12.4836
    13.0729  13.1694  15.2334  15.7624  16.4917  16.7315  16.7472  17.7239
    18.1201  18.5808  18.8510  19.2201  19.7477  20.5538  20.7279  21.1594
    21.9767  22.0451  22.9472  23.0702  23.4580  24.0418  24.2957  24.5014
    25.0888  26.2044  26.3641  26.7671

     occupation numbers 
     1.0000   1.0000   1.0000   1.0000   1.0000   1.0000   1.0000   1.0000
     1.0000   1.0000   1.0000   1.0000   1.0000   1.0000   1.0000   1.0000
     1.0000   1.0000   1.0000   1.0000   1.0000   1.0000   1.0000   1.0000
     1.0334   0.8398  -0.0000  -0.0000  -0.0000  -0.0000  -0.0000  -0.0000
    -0.0000  -0.0000  -0.0000  -0.0000  -0.0000  -0.0000  -0.0000  -0.0000
    -0.0000  -0.0000  -0.0000  -0.0000  -0.0000  -0.0000  -0.0000  -0.0000
    -0.0000  -0.0000  -0.0000  -0.0000  -0.0000  -0.0000  -0.0000  -0.0000
    -0.0000  -0.0000  -0.0000  -0.0000

          k = 0.0833 0.5292 0.0000 (  3504 PWs)   bands (ev):

   -46.3269 -46.3138 -22.7857 -22.7803 -22.4857 -22.4788 -22.4734 -22.4652
    -3.6179  -3.5583  -3.4434  -3.3744   3.1027   3.1859   3.8556   4.1032
     4.6919   4.7370   5.4969   5.6095   6.4811   6.9259   7.0628   7.1876
     8.1519   8.3797  11.3519  11.4570  11.8355  11.9863  12.3254  12.7434
    12.9404  13.2393  14.2639  15.4136  16.4639  16.6884  16.9363  17.3018
    17.7396  17.9479  18.3387  19.1705  19.3045  19.9427  21.4653  21.9383
    22.5864  23.2330  23.4483  23.6808  24.1988  24.6815  24.7804  25.2101
    25.4664  25.8420  26.1869  26.6785

     occupation numbers 
     1.0000   1.0000   1.0000   1.0000   1.0000   1.0000   1.0000   1.0000
     1.0000   1.0000   1.0000   1.0000   1.0000   1.0000   1.0000   1.0000
     1.0000   1.0000   1.0000   1.0000   1.0000   1.0000   1.0000   1.0000
     0.8657   0.2262  -0.0000  -0.0000  -0.0000  -0.0000  -0.0000  -0.0000
    -0.0000  -0.0000  -0.0000  -0.0000  -0.0000  -0.0000  -0.0000  -0.0000
    -0.0000  -0.0000  -0.0000  -0.0000  -0.0000  -0.0000  -0.0000  -0.0000
    -0.0000  -0.0000  -0.0000  -0.0000  -0.0000  -0.0000  -0.0000  -0.0000
    -0.0000  -0.0000  -0.0000  -0.0000

          k = 0.1667 0.2887 0.0000 (  3500 PWs)   bands (ev):

   -46.3439 -46.3309 -22.6173 -22.6105 -22.5226 -22.5162 -22.4404 -22.4320
    -4.3455  -4.2157  -3.7084  -3.5474   3.5788   4.0167   4.6987   4.8373
     4.8904   5.0806   5.4537   5.7681   6.5817   6.6513   7.2498   7.7423
     8.1333   8.1438  10.5703  11.1081  11.3917  11.4586  11.7325  11.8288
    12.9629  13.0722  16.4394  16.7267  16.7726  17.5222  17.7843  18.1587
    18.1875  18.3276  19.2722  19.5918  19.6380  19.7828  19.9315  20.2891
    20.3647  21.9593  22.1884  22.5692  22.6912  22.7054  23.3484  24.6380
    25.3817  25.8362  26.4146  27.2347

     occupation numbers 
     1.0000   1.0000   1.0000   1.0000   1.0000   1.0000   1.0000   1.0000
     1.0000   1.0000   1.0000   1.0000   1.0000   1.0000   1.0000   1.0000
     1.0000   1.0000   1.0000   1.0000   1.0000   1.0000   1.0000   1.0081
     0.9014   0.8818  -0.0000  -0.0000  -0.0000  -0.0000  -0.0000  -0.0000
    -0.0000  -0.0000  -0.0000  -0.0000  -0.0000  -0.0000  -0.0000  -0.0000
    -0.0000  -0.0000  -0.0000  -0.0000  -0.0000  -0.0000  -0.0000  -0.0000
    -0.0000  -0.0000  -0.0000  -0.0000  -0.0000  -0.0000  -0.0000  -0.0000
    -0.0000  -0.0000  -0.0000  -0.0000

          k = 0.1667 0.3849 0.0000 (  3500 PWs)   bands (ev):

   -46.3341 -46.3210 -22.6931 -22.6870 -22.5013 -22.4947 -22.4824 -22.4744
    -3.9508  -3.8449  -3.5609  -3.4432   3.5144   3.7449   4.3151   4.4264
     4.7660   4.9710   5.2835   5.6624   6.3475   6.4319   7.0192   7.4501
     8.0664   8.1610  10.7333  11.4127  11.6641  11.7435  11.7808  12.1523
    13.2257  13.3183  15.9322  16.2329  16.5812  17.2283  17.6258  18.1263
    18.3531  18.6666  18.8613  19.2405  19.5890  19.9168  20.2798  20.4433
    20.9244  21.5229  21.8052  23.1519  23.3337  23.6965  23.7584  25.0820
    25.8539  26.3997  26.6127  27.2229

     occupation numbers 
     1.0000   1.0000   1.0000   1.0000   1.0000   1.0000   1.0000   1.0000
     1.0000   1.0000   1.0000   1.0000   1.0000   1.0000   1.0000   1.0000
     1.0000   1.0000   1.0000   1.0000   1.0000   1.0000   1.0000   1.0001
     0.9916   0.8464  -0.0000  -0.0000  -0.0000  -0.0000  -0.0000  -0.0000
    -0.0000  -0.0000  -0.0000  -0.0000  -0.0000  -0.0000  -0.0000  -0.0000
    -0.0000  -0.0000  -0.0000  -0.0000  -0.0000  -0.0000  -0.0000  -0.0000
    -0.0000  -0.0000  -0.0000  -0.0000  -0.0000  -0.0000  -0.0000  -0.0000
    -0.0000  -0.0000  -0.0000  -0.0000

          k = 0.1667 0.4811 0.0000 (  3495 PWs)   bands (ev):

   -46.3269 -46.3138 -22.7465 -22.7409 -22.5145 -22.5067 -22.4857 -22.4789
    -3.6303  -3.5602  -3.4356  -3.3618   3.3963   3.5158   3.8308   3.9614
     4.7963   4.8887   5.3909   5.6747   6.1528   6.3108   6.6926   7.1576
     8.2670   8.4007  11.0736  11.3993  11.8530  12.0748  12.1584  12.4412
    13.0993  13.4406  14.8548  16.0068  16.8076  16.8822  17.4064  17.4800
    18.2746  18.3526  18.5731  18.9625  19.5993  20.4690  20.7381  21.0819
    21.6929  21.8612  22.1736  22.8063  23.8098  24.3837  24.6097  25.5225
    25.6842  26.2671  26.4261  26.8378

     occupation numbers 
     1.0000   1.0000   1.0000   1.0000   1.0000   1.0000   1.0000   1.0000
     1.0000   1.0000   1.0000   1.0000   1.0000   1.0000   1.0000   1.0000
     1.0000   1.0000   1.0000   1.0000   1.0000   1.0000   1.0000   1.0000
     0.5582   0.1755  -0.0000  -0.0000  -0.0000  -0.0000  -0.0000  -0.0000
    -0.0000  -0.0000  -0.0000  -0.0000  -0.0000  -0.0000  -0.0000  -0.0000
    -0.0000  -0.0000  -0.0000  -0.0000  -0.0000  -0.0000  -0.0000  -0.0000
    -0.0000  -0.0000  -0.0000  -0.0000  -0.0000  -0.0000  -0.0000  -0.0000
    -0.0000  -0.0000  -0.0000  -0.0000

          k = 0.1667 0.5774 0.0000 (  3508 PWs)   bands (ev):

   -46.3243 -46.3111 -22.7658 -22.7603 -22.5265 -22.5187 -22.4800 -22.4731
    -3.5023  -3.4596  -3.3827  -3.3288   3.3798   3.4085   3.6564   3.7922
     4.7428   4.7981   5.4965   5.6849   6.1030   6.3111   6.5258   7.0302
     8.4147   8.5847  11.1794  11.2493  12.0002  12.3219  12.4114  12.5258
    12.9305  13.4565  14.3665  15.8340  16.7397  17.1173  17.3208  17.5746
    17.8351  18.1894  18.3959  18.7435  19.6835  20.1783  21.2923  21.4352
    21.8645  22.4203  22.5450  22.5645  24.2836  24.6820  25.2000  25.2607
    25.5570  26.0846  26.1018  26.7987

     occupation numbers 
     1.0000   1.0000   1.0000   1.0000   1.0000   1.0000   1.0000   1.0000
     1.0000   1.0000   1.0000   1.0000   1.0000   1.0000   1.0000   1.0000
     1.0000   1.0000   1.0000   1.0000   1.0000   1.0000   1.0000   1.0000
     0.1445  -0.0326  -0.0000  -0.0000  -0.0000  -0.0000  -0.0000  -0.0000
    -0.0000  -0.0000  -0.0000  -0.0000  -0.0000  -0.0000  -0.0000  -0.0000
    -0.0000  -0.0000  -0.0000  -0.0000  -0.0000  -0.0000  -0.0000  -0.0000
    -0.0000  -0.0000  -0.0000  -0.0000  -0.0000  -0.0000  -0.0000  -0.0000
    -0.0000  -0.0000  -0.0000  -0.0000

          k = 0.2500 0.4330 0.0000 (  3492 PWs)   bands (ev):

   -46.3269 -46.3138 -22.7204 -22.7146 -22.5417 -22.5340 -22.4858 -22.4789
    -3.6362  -3.5616  -3.4316  -3.3554   3.5609   3.7445   3.8371   3.8827
     4.8736   5.0813   5.3264   5.7068   5.7640   5.7853   6.8288   7.1244
     8.3200   8.3700  10.9343  11.3627  11.8727  11.9867  12.1136  12.2425
    13.4506  13.5042  15.5470  15.6488  16.6335  17.1709  17.7339  17.9409
    18.1347  18.5723  19.3036  19.5167  19.7311  20.3224  20.5145  20.6706
    20.7257  21.1293  21.3979  22.7305  23.8421  23.8444  24.1981  25.6694
    26.2369  26.3373  26.7980  26.8597

     occupation numbers 
     1.0000   1.0000   1.0000   1.0000   1.0000   1.0000   1.0000   1.0000
     1.0000   1.0000   1.0000   1.0000   1.0000   1.0000   1.0000   1.0000
     1.0000   1.0000   1.0000   1.0000   1.0000   1.0000   1.0000   1.0000
     0.3945   0.2513  -0.0000  -0.0000  -0.0000  -0.0000  -0.0000  -0.0000
    -0.0000  -0.0000  -0.0000  -0.0000  -0.0000  -0.0000  -0.0000  -0.0000
    -0.0000  -0.0000  -0.0000  -0.0000  -0.0000  -0.0000  -0.0000  -0.0000
    -0.0000  -0.0000  -0.0000  -0.0000  -0.0000  -0.0000  -0.0000  -0.0000
    -0.0000  -0.0000  -0.0000  -0.0000

          k = 0.2500 0.5292 0.0000 (  3476 PWs)   bands (ev):

   -46.3228 -46.3096 -22.7263 -22.7206 -22.5857 -22.5782 -22.4767 -22.4697
    -3.4399  -3.4037  -3.3438  -3.2954   3.5117   3.5644   3.7316   3.8465
     4.7664   4.9797   5.2983   5.5291   5.5536   5.8357   6.5655   6.8209
     8.6357   8.6987  10.8843  10.9541  12.1304  12.1805  12.2287  12.5591
    13.5093  13.7014  14.9080  15.7139  16.3554  16.7912  17.5339  18.1675
    18.4601  18.8055  19.4557  19.4617  19.8059  20.3139  20.5759  20.9593
    21.2238  21.4403  21.6292  21.9092  23.9822  24.4030  24.5455  24.9299
    25.3382  26.3548  26.5479  26.7144

     occupation numbers 
     1.0000   1.0000   1.0000   1.0000   1.0000   1.0000   1.0000   1.0000
     1.0000   1.0000   1.0000   1.0000   1.0000   1.0000   1.0000   1.0000
     1.0000   1.0000   1.0000   1.0000   1.0000   1.0000   1.0000   1.0000
    -0.0349  -0.0269  -0.0000  -0.0000  -0.0000  -0.0000  -0.0000  -0.0000
    -0.0000  -0.0000  -0.0000  -0.0000  -0.0000  -0.0000  -0.0000  -0.0000
    -0.0000  -0.0000  -0.0000  -0.0000  -0.0000  -0.0000  -0.0000  -0.0000
    -0.0000  -0.0000  -0.0000  -0.0000  -0.0000  -0.0000  -0.0000  -0.0000
    -0.0000  -0.0000  -0.0000  -0.0000

          k = 0.3333 0.5774 0.0000 (  3474 PWs)   bands (ev):

   -46.3213 -46.3081 -22.6954 -22.6900 -22.6354 -22.6278 -22.4734 -22.4664
    -3.3625  -3.3578  -3.3096  -3.2618   3.3872   3.4190   4.0958   4.2781
     4.5884   4.6044   5.1184   5.1331   5.6706   5.9739   6.5200   6.5422
     8.8868   8.8897  10.6295  10.6555  12.0854  12.1299  12.5493  12.5938
    13.7850  13.8135  15.0841  15.7548  15.7564  16.6929  17.2900  19.0670
    19.0670  19.2815  19.2929  19.7879  20.1260  20.1382  20.2080  20.8654
    21.1525  21.1527  21.2953  21.7389  24.2773  24.3111  24.4735  24.4983
    24.6528  25.8478  25.8958  26.9981

     occupation numbers 
     1.0000   1.0000   1.0000   1.0000   1.0000   1.0000   1.0000   1.0000
     1.0000   1.0000   1.0000   1.0000   1.0000   1.0000   1.0000   1.0000
     1.0000   1.0000   1.0000   1.0000   1.0000   1.0000   1.0000   1.0000
    -0.0038  -0.0037  -0.0000  -0.0000  -0.0000  -0.0000  -0.0000  -0.0000
    -0.0000  -0.0000  -0.0000  -0.0000  -0.0000  -0.0000  -0.0000  -0.0000
    -0.0000  -0.0000  -0.0000  -0.0000  -0.0000  -0.0000  -0.0000  -0.0000
    -0.0000  -0.0000  -0.0000  -0.0000  -0.0000  -0.0000  -0.0000  -0.0000
    -0.0000  -0.0000  -0.0000  -0.0000

     the Fermi energy is     8.2857 ev

!    total energy              =    -907.91703386 Ry

     total all-electron energy =    -18448.326056 Ry
     estimated scf accuracy    <          1.1E-09 Ry
     smearing contrib. (-TS)   =      -0.00128807 Ry
     internal energy E=F+TS    =    -907.91574579 Ry

     The total energy is F=E-TS. E is the sum of the following terms:
     one-electron contribution =    -151.96598045 Ry
     hartree contribution      =      98.85293767 Ry
     xc contribution           =     -65.34176142 Ry
     ewald contribution        =    -201.20597322 Ry
     one-center paw contrib.   =    -588.25496837 Ry
      -> PAW hartree energy AE =     100.87420175 Ry
      -> PAW hartree energy PS =    -100.36007928 Ry
      -> PAW xc energy AE      =    -324.79770792 Ry
      -> PAW xc energy PS      =      30.15693701 Ry
      -> total E_H with PAW    =      99.36706014 Ry
      -> total E_XC with PAW   =    -359.98253233 Ry

     convergence has been achieved in  13 iterations

     Forces acting on atoms (cartesian axes, Ry/au):

     atom    1 type  2   force =     0.00000000   -0.00000000   -0.01624861
     atom    2 type  1   force =     0.00000000    0.00000000    0.00635092
     atom    3 type  2   force =     0.00000000    0.00000000    0.00890728
     atom    4 type  2   force =     0.00000000    0.00000000    0.00578667
     atom    5 type  1   force =     0.00000000   -0.00000000    0.00087612
     atom    6 type  2   force =     0.00000000    0.00000000   -0.00567238
     The non-local contrib.  to forces
     atom    1 type  2   force =     0.00000000    0.00000000   -0.11351288
     atom    2 type  1   force =     0.00000000   -0.00000000    0.00507898
     atom    3 type  2   force =     0.00000000    0.00000000    0.08611471
     atom    4 type  2   force =    -0.00000000   -0.00000000    0.09455071
     atom    5 type  1   force =     0.00000000    0.00000000   -0.00107240
     atom    6 type  2   force =     0.00000000    0.00000000   -0.08648085
     The ionic contribution  to forces
     atom    1 type  2   force =    -0.00000000    0.00000000   14.27274984
     atom    2 type  1   force =     0.00000000   -0.00000001    2.34295927
     atom    3 type  2   force =    -0.00000000    0.00000000  -12.29831375
     atom    4 type  2   force =     0.00000000    0.00000000  -14.45755816
     atom    5 type  1   force =    -0.00000000   -0.00000000   -2.25159631
     atom    6 type  2   force =     0.00000000    0.00000000   12.39175911
     The local contribution  to forces
     atom    1 type  2   force =     0.00000000    0.00000000  -14.17372624
     atom    2 type  1   force =     0.00000000   -0.00000000   -2.34141439
     atom    3 type  2   force =    -0.00000001    0.00000002   12.21786915
     atom    4 type  2   force =     0.00000000    0.00000000   14.36586331
     atom    5 type  1   force =     0.00000000    0.00000000    2.25345653
     atom    6 type  2   force =     0.00000000    0.00000000  -12.30766301
     The core correction contribution to forces
     atom    1 type  2   force =    -0.00000000   -0.00000000   -0.00177920
     atom    2 type  1   force =    -0.00000000    0.00000000   -0.00029131
     atom    3 type  2   force =     0.00000000   -0.00000000    0.00327418
     atom    4 type  2   force =    -0.00000000   -0.00000000    0.00286433
     atom    5 type  1   force =     0.00000000    0.00000000    0.00012088
     atom    6 type  2   force =    -0.00000000   -0.00000000   -0.00323868
     The Hubbard contrib.    to forces
     atom    1 type  2   force =     0.00000000    0.00000000    0.00000000
     atom    2 type  1   force =     0.00000000    0.00000000    0.00000000
     atom    3 type  2   force =     0.00000000    0.00000000    0.00000000
     atom    4 type  2   force =     0.00000000    0.00000000    0.00000000
     atom    5 type  1   force =     0.00000000    0.00000000    0.00000000
     atom    6 type  2   force =     0.00000000    0.00000000    0.00000000
     The SCF correction term to forces
     atom    1 type  2   force =    -0.00000000    0.00000000    0.00002022
     atom    2 type  1   force =     0.00000000   -0.00000000    0.00001871
     atom    3 type  2   force =    -0.00000000    0.00000000   -0.00003669
     atom    4 type  2   force =     0.00000000    0.00000000    0.00006681
     atom    5 type  1   force =    -0.00000000   -0.00000000   -0.00003224
     atom    6 type  2   force =     0.00000000    0.00000000   -0.00004860

     Total force =     0.021216     Total SCF correction =     0.000100


     Computing stress (Cartesian axis) and pressure

          total   stress  (Ry/bohr**3)                   (kbar)     P=      -19.58
  -0.00007614   0.00000000   0.00000000          -11.20        0.00        0.00
   0.00000000  -0.00007614   0.00000000            0.00      -11.20        0.00
   0.00000000   0.00000000  -0.00024709            0.00        0.00      -36.35

     kinetic stress (kbar)  14472.57      0.00     -0.00
                                0.00  14472.57      0.00
                               -0.00      0.00  14574.30

     local   stress (kbar) -28392.63     -0.00     -0.00
                               -0.00 -28392.63      0.00
                               -0.00      0.00  18056.49

     nonloc. stress (kbar)   7666.28      0.00      0.00
                                0.00   7666.28      0.00
                                0.00      0.00   7686.93

     hartree stress (kbar)  12841.45      0.00      0.00
                                0.00  12841.45      0.00
                                0.00      0.00  -7904.97

     exc-cor stress (kbar)    584.37      0.00      0.00
                                0.00    584.37      0.00
                                0.00      0.00    584.37

     corecor stress (kbar)  -3736.98     -0.00     -0.00
                               -0.00  -3736.98      0.00
                               -0.00      0.00  -3740.65

     ewald   stress (kbar)  -3446.26      0.00      0.00
                                0.00  -3446.26     -0.00
                                0.00     -0.00 -29292.82

     hubbard stress (kbar)      0.00      0.00      0.00
                                0.00      0.00      0.00
                                0.00      0.00      0.00

     DFT-D   stress (kbar)      0.00      0.00      0.00
                                0.00      0.00      0.00
                                0.00      0.00      0.00

     XDM     stress (kbar)      0.00      0.00      0.00
                                0.00      0.00      0.00
                                0.00      0.00      0.00

     dft-nl  stress (kbar)      0.00      0.00      0.00
                                0.00      0.00      0.00
                                0.00      0.00      0.00

     TS-vdW  stress (kbar)      0.00      0.00      0.00
                                0.00      0.00      0.00
                                0.00      0.00      0.00



     BFGS Geometry Optimization

     number of scf cycles    =   1
     number of bfgs steps    =   0

     enthalpy new            =    -907.9170338561 Ry

     new trust radius        =       0.0353343492 bohr
     new conv_thr            =       0.0000000100 Ry

     new unit-cell volume =    809.82267 a.u.^3 (   120.00334 Ang^3 )
     density =      4.34595 g/cm^3

CELL_PARAMETERS (alat=  6.20056936)
   0.998096457  -0.000000000   0.000000000
  -0.499048229   0.864376887   0.000000000
   0.000000000   0.000000000   3.937490864

ATOMIC_POSITIONS (crystal)
S             0.3333333333        0.6666666666        0.3762416621
Nb            0.0000000000        0.0000000000        0.2550466740
S             0.3333333333        0.6666666660        0.1346874252
S             0.6666666666        0.3333333333        0.6441367055
Nb           -0.0000000000       -0.0000000000        0.7644014327
S             0.6666666666        0.3333333333        0.8845981773



     Writing output data file ./tmp/NbS2_bi.save/
     NEW-OLD atomic charge density approx. for the potential
     extrapolated charge   49.49715, renormalised to   50.00000

     total cpu time spent up to now is      173.4 secs

     Self-consistent Calculation

     iteration #  1     ecut=    40.00 Ry     beta= 0.70
     Davidson diagonalization with overlap
     ethr =  1.00E-06,  avg # of iterations =  8.1

     total cpu time spent up to now is      195.5 secs

     total energy              =    -907.61660675 Ry
     estimated scf accuracy    <       0.29825908 Ry

     iteration #  2     ecut=    40.00 Ry     beta= 0.70
     Davidson diagonalization with overlap
     ethr =  5.97E-04,  avg # of iterations =  4.0

     total cpu time spent up to now is      208.8 secs

     total energy              =    -907.60005633 Ry
     estimated scf accuracy    <       4.27495685 Ry

     iteration #  3     ecut=    40.00 Ry     beta= 0.70
     Davidson diagonalization with overlap
     ethr =  5.97E-04,  avg # of iterations =  3.2

     total cpu time spent up to now is      220.4 secs

     total energy              =    -907.91656438 Ry
     estimated scf accuracy    <       1.49554082 Ry

     iteration #  4     ecut=    40.00 Ry     beta= 0.70
     Davidson diagonalization with overlap
     ethr =  5.97E-04,  avg # of iterations =  1.0

     total cpu time spent up to now is      228.8 secs

     total energy              =    -907.93455113 Ry
     estimated scf accuracy    <       0.30502522 Ry

     iteration #  5     ecut=    40.00 Ry     beta= 0.70
     Davidson diagonalization with overlap
     ethr =  5.97E-04,  avg # of iterations =  1.0

     total cpu time spent up to now is      237.0 secs

     total energy              =    -907.92953727 Ry
     estimated scf accuracy    <       0.15556944 Ry

     iteration #  6     ecut=    40.00 Ry     beta= 0.70
     Davidson diagonalization with overlap
     ethr =  3.11E-04,  avg # of iterations =  1.0

     total cpu time spent up to now is      245.9 secs

     total energy              =    -907.92190582 Ry
     estimated scf accuracy    <       0.08332839 Ry

     iteration #  7     ecut=    40.00 Ry     beta= 0.70
     Davidson diagonalization with overlap
     ethr =  1.67E-04,  avg # of iterations =  1.0

     total cpu time spent up to now is      254.5 secs

     total energy              =    -907.92151012 Ry
     estimated scf accuracy    <       0.03311930 Ry

     iteration #  8     ecut=    40.00 Ry     beta= 0.70
     Davidson diagonalization with overlap
     ethr =  6.62E-05,  avg # of iterations =  1.1

     total cpu time spent up to now is      262.9 secs

     total energy              =    -907.92081134 Ry
     estimated scf accuracy    <       0.02206258 Ry

     iteration #  9     ecut=    40.00 Ry     beta= 0.70
     Davidson diagonalization with overlap
     ethr =  4.41E-05,  avg # of iterations =  1.0

     total cpu time spent up to now is      271.3 secs

     total energy              =    -907.91882549 Ry
     estimated scf accuracy    <       0.01697396 Ry

     iteration # 10     ecut=    40.00 Ry     beta= 0.70
     Davidson diagonalization with overlap
     ethr =  3.39E-05,  avg # of iterations =  1.2

     total cpu time spent up to now is      280.5 secs

     total energy              =    -907.91736124 Ry
     estimated scf accuracy    <       0.00627334 Ry

     iteration # 11     ecut=    40.00 Ry     beta= 0.70
     Davidson diagonalization with overlap
     ethr =  1.25E-05,  avg # of iterations =  2.4

     total cpu time spent up to now is      289.9 secs

     total energy              =    -907.91818899 Ry
     estimated scf accuracy    <       0.00000441 Ry

     iteration # 12     ecut=    40.00 Ry     beta= 0.70
     Davidson diagonalization with overlap
     ethr =  8.82E-09,  avg # of iterations =  4.8

     total cpu time spent up to now is      301.1 secs

     total energy              =    -907.91819038 Ry
     estimated scf accuracy    <       0.00000107 Ry

     iteration # 13     ecut=    40.00 Ry     beta= 0.70
     Davidson diagonalization with overlap
     ethr =  2.14E-09,  avg # of iterations =  1.0

     total cpu time spent up to now is      309.5 secs

     total energy              =    -907.91819046 Ry
     estimated scf accuracy    <       0.00000008 Ry

     iteration # 14     ecut=    40.00 Ry     beta= 0.70
     Davidson diagonalization with overlap
     ethr =  1.55E-10,  avg # of iterations =  1.9

     total cpu time spent up to now is      318.8 secs

     total energy              =    -907.91819047 Ry
     estimated scf accuracy    <       0.00000001 Ry

     iteration # 15     ecut=    40.00 Ry     beta= 0.70
     Davidson diagonalization with overlap
     ethr =  2.41E-11,  avg # of iterations =  1.7

     total cpu time spent up to now is      327.9 secs

     End of self-consistent calculation

          k = 0.0000 0.0000 0.0000 (  3517 PWs)   bands (ev):

   -46.2052 -46.1964 -22.4322 -22.4282 -22.1930 -22.1930 -22.1870 -22.1870
    -5.2414  -5.0868  -3.9345  -3.6752   2.8376   3.5674   6.1227   6.1227
     6.1600   6.1600   6.2245   7.2517   7.2517   7.2807   7.2807   7.9271
     8.8637   9.8187  11.5459  11.5459  11.6358  11.6358  11.7638  11.7638
    11.8250  11.8250  13.9002  14.0730  16.6833  16.7848  17.0188  17.9546
    19.0480  19.0480  19.1105  19.1105  20.7329  20.8744  20.8744  21.4757
    21.4757  21.8445  22.8882  23.5943  23.6822  23.6822  24.2207  24.4799
    24.4799  24.7172  24.7172  25.1634

     occupation numbers 
     1.0000   1.0000   1.0000   1.0000   1.0000   1.0000   1.0000   1.0000
     1.0000   1.0000   1.0000   1.0000   1.0000   1.0000   1.0000   1.0000
     1.0000   1.0000   1.0000   1.0000   1.0000   1.0000   1.0000   1.0142
    -0.0215  -0.0000  -0.0000  -0.0000  -0.0000  -0.0000  -0.0000  -0.0000
    -0.0000  -0.0000  -0.0000  -0.0000  -0.0000  -0.0000  -0.0000  -0.0000
    -0.0000  -0.0000  -0.0000  -0.0000  -0.0000  -0.0000  -0.0000  -0.0000
    -0.0000  -0.0000  -0.0000  -0.0000  -0.0000  -0.0000  -0.0000  -0.0000
    -0.0000  -0.0000  -0.0000  -0.0000

          k = 0.0000 0.0964-0.0000 (  3505 PWs)   bands (ev):

   -46.2021 -46.1933 -22.4255 -22.4214 -22.2250 -22.2192 -22.2000 -22.1940
    -5.1443  -4.9908  -3.9014  -3.6508   2.9520   3.6795   5.8744   5.9119
     6.0039   6.2205   6.2585   6.8576   7.0860   7.1220   7.3318   8.0982
     8.8479   9.6082  11.4938  11.5127  11.5577  11.6611  11.7406  11.7501
    11.7575  11.8422  14.3858  14.5520  16.8503  17.2544  17.4255  17.9837
    18.6023  18.9436  19.3201  19.4356  20.1132  20.7652  20.8123  20.9831
    21.5210  21.6370  22.8933  22.9594  23.7859  23.9454  24.1285  24.5120
    24.7454  24.7584  24.9164  25.1747

     occupation numbers 
     1.0000   1.0000   1.0000   1.0000   1.0000   1.0000   1.0000   1.0000
     1.0000   1.0000   1.0000   1.0000   1.0000   1.0000   1.0000   1.0000
     1.0000   1.0000   1.0000   1.0000   1.0000   1.0000   1.0000   1.0351
    -0.0241  -0.0000  -0.0000  -0.0000  -0.0000  -0.0000  -0.0000  -0.0000
    -0.0000  -0.0000  -0.0000  -0.0000  -0.0000  -0.0000  -0.0000  -0.0000
    -0.0000  -0.0000  -0.0000  -0.0000  -0.0000  -0.0000  -0.0000  -0.0000
    -0.0000  -0.0000  -0.0000  -0.0000  -0.0000  -0.0000  -0.0000  -0.0000
    -0.0000  -0.0000  -0.0000  -0.0000

          k = 0.0000 0.1928-0.0000 (  3483 PWs)   bands (ev):

   -46.1936 -46.1848 -22.4070 -22.4028 -22.3118 -22.3065 -22.2192 -22.2133
    -4.8701  -4.7209  -3.8079  -3.5822   3.2476   3.9540   5.3186   5.3609
     5.5409   6.1792   6.4871   6.5275   6.7021   6.7489   7.2692   8.0802
     8.6927   9.0678  11.0409  11.4604  11.4618  11.5825  11.7067  11.7839
    12.2074  12.3212  15.4073  15.7237  17.1485  17.5513  18.0106  18.2805
    18.3219  18.5256  19.3619  19.8919  20.0701  20.2847  20.6372  20.8074
    21.3785  21.6983  21.9649  22.5122  22.7577  23.8759  24.1095  24.3249
    24.4890  24.8273  25.8191  26.5749

     occupation numbers 
     1.0000   1.0000   1.0000   1.0000   1.0000   1.0000   1.0000   1.0000
     1.0000   1.0000   1.0000   1.0000   1.0000   1.0000   1.0000   1.0000
     1.0000   1.0000   1.0000   1.0000   1.0000   1.0000   1.0000   1.0354
    -0.0258  -0.0019  -0.0000  -0.0000  -0.0000  -0.0000  -0.0000  -0.0000
    -0.0000  -0.0000  -0.0000  -0.0000  -0.0000  -0.0000  -0.0000  -0.0000
    -0.0000  -0.0000  -0.0000  -0.0000  -0.0000  -0.0000  -0.0000  -0.0000
    -0.0000  -0.0000  -0.0000  -0.0000  -0.0000  -0.0000  -0.0000  -0.0000
    -0.0000  -0.0000  -0.0000  -0.0000

          k = 0.0000 0.2892-0.0000 (  3487 PWs)   bands (ev):

   -46.1819 -46.1730 -22.4283 -22.4236 -22.3816 -22.3772 -22.2453 -22.2395
    -4.4691  -4.3310  -3.6711  -3.4841   3.5212   4.0647   4.8621   4.9322
     5.0144   5.4813   6.2712   6.3237   6.8489   6.9047   7.0061   7.8322
     8.2750   8.4919  10.9476  11.3204  11.4436  11.7150  11.8324  12.2092
    12.6884  12.8474  15.8887  16.7850  16.8828  17.4374  17.6738  17.8571
    18.4097  18.7912  19.4208  19.9539  20.5789  20.8383  21.0819  21.2015
    21.3052  21.5413  21.9577  22.0379  22.1475  23.2440  23.4581  23.9481
    25.0768  25.6479  26.3302  26.6845

     occupation numbers 
     1.0000   1.0000   1.0000   1.0000   1.0000   1.0000   1.0000   1.0000
     1.0000   1.0000   1.0000   1.0000   1.0000   1.0000   1.0000   1.0000
     1.0000   1.0000   1.0000   1.0000   1.0000   1.0000   1.0000   1.0047
     0.8855   0.2817  -0.0000  -0.0000  -0.0000  -0.0000  -0.0000  -0.0000
    -0.0000  -0.0000  -0.0000  -0.0000  -0.0000  -0.0000  -0.0000  -0.0000
    -0.0000  -0.0000  -0.0000  -0.0000  -0.0000  -0.0000  -0.0000  -0.0000
    -0.0000  -0.0000  -0.0000  -0.0000  -0.0000  -0.0000  -0.0000  -0.0000
    -0.0000  -0.0000  -0.0000  -0.0000

          k = 0.0000 0.3856-0.0000 (  3499 PWs)   bands (ev):

   -46.1702 -46.1613 -22.5425 -22.5385 -22.3560 -22.3514 -22.2713 -22.2656
    -4.0258  -3.9102  -3.5204  -3.3811   3.4319   3.6821   4.4941   4.7710
     4.8584   4.9471   5.9140   5.9708   6.7446   7.1833   7.2633   7.5791
     7.9756   8.1926  11.2410  11.3504  11.4438  11.9606  12.0944  12.6593
    13.0372  13.2585  15.6862  16.1434  16.4787  16.8829  16.9193  18.0010
    18.4316  19.2194  19.3465  20.0890  20.1368  20.6597  20.9527  21.6792
    21.7503  21.9163  22.9587  23.0849  23.1403  23.5211  23.5935  23.9070
    25.4699  25.8259  26.2506  26.6293

     occupation numbers 
     1.0000   1.0000   1.0000   1.0000   1.0000   1.0000   1.0000   1.0000
     1.0000   1.0000   1.0000   1.0000   1.0000   1.0000   1.0000   1.0000
     1.0000   1.0000   1.0000   1.0000   1.0000   1.0000   1.0000   1.0001
     1.0217   0.9977  -0.0000  -0.0000  -0.0000  -0.0000  -0.0000  -0.0000
    -0.0000  -0.0000  -0.0000  -0.0000  -0.0000  -0.0000  -0.0000  -0.0000
    -0.0000  -0.0000  -0.0000  -0.0000  -0.0000  -0.0000  -0.0000  -0.0000
    -0.0000  -0.0000  -0.0000  -0.0000  -0.0000  -0.0000  -0.0000  -0.0000
    -0.0000  -0.0000  -0.0000  -0.0000

          k = 0.0000 0.4820-0.0000 (  3496 PWs)   bands (ev):

   -46.1616 -46.1527 -22.6247 -22.6211 -22.3372 -22.3325 -22.2902 -22.2846
    -3.6598  -3.5799  -3.3961  -3.3045   3.1700   3.2956   4.1191   4.4417
     4.7694   4.8616   5.6827   5.7417   6.5943   7.3979   7.4214   7.5045
     8.0400   8.3097  11.5167  11.5669  11.6984  12.0889  12.3098  12.9406
    13.2240  13.4980  14.7850  15.4854  16.3267  16.6595  16.6925  17.5061
    18.0946  18.6642  19.1665  19.2725  19.7908  20.1616  21.4811  22.3705
    22.6391  23.5096  23.9012  24.0303  24.3154  24.3253  24.4745  24.7307
    25.6142  26.0057  26.2114  26.4681

     occupation numbers 
     1.0000   1.0000   1.0000   1.0000   1.0000   1.0000   1.0000   1.0000
     1.0000   1.0000   1.0000   1.0000   1.0000   1.0000   1.0000   1.0000
     1.0000   1.0000   1.0000   1.0000   1.0000   1.0000   1.0000   1.0000
     1.0321   0.8112  -0.0000  -0.0000  -0.0000  -0.0000  -0.0000  -0.0000
    -0.0000  -0.0000  -0.0000  -0.0000  -0.0000  -0.0000  -0.0000  -0.0000
    -0.0000  -0.0000  -0.0000  -0.0000  -0.0000  -0.0000  -0.0000  -0.0000
    -0.0000  -0.0000  -0.0000  -0.0000  -0.0000  -0.0000  -0.0000  -0.0000
    -0.0000  -0.0000  -0.0000  -0.0000

          k =-0.0000-0.5785 0.0000 (  3496 PWs)   bands (ev):

   -46.1585 -46.1495 -22.6545 -22.6510 -22.3303 -22.3255 -22.2971 -22.2915
    -3.5110  -3.4575  -3.3446  -3.2775   3.0565   3.1442   3.9799   4.2904
     4.7356   4.7961   5.6031   5.6629   6.5494   7.3702   7.4675   7.5856
     8.1664   8.4359  11.6184  11.6472  12.0614  12.0805  12.3439  13.0456
    13.2799  13.5740  14.1826  15.2502  16.1641  16.8286  16.9692  17.0095
    17.9025  18.3146  18.9239  19.2343  19.3494  19.8131  21.9679  22.7050
    23.0382  24.0681  24.4045  24.7590  24.7640  24.8060  25.1679  25.3770
    25.6481  25.8938  25.9671  26.0474

     occupation numbers 
     1.0000   1.0000   1.0000   1.0000   1.0000   1.0000   1.0000   1.0000
     1.0000   1.0000   1.0000   1.0000   1.0000   1.0000   1.0000   1.0000
     1.0000   1.0000   1.0000   1.0000   1.0000   1.0000   1.0000   1.0001
     1.0159   0.4470  -0.0000  -0.0000  -0.0000  -0.0000  -0.0000  -0.0000
    -0.0000  -0.0000  -0.0000  -0.0000  -0.0000  -0.0000  -0.0000  -0.0000
    -0.0000  -0.0000  -0.0000  -0.0000  -0.0000  -0.0000  -0.0000  -0.0000
    -0.0000  -0.0000  -0.0000  -0.0000  -0.0000  -0.0000  -0.0000  -0.0000
    -0.0000  -0.0000  -0.0000  -0.0000

          k = 0.0835 0.1446-0.0000 (  3479 PWs)   bands (ev):

   -46.1963 -46.1875 -22.4128 -22.4087 -22.2828 -22.2773 -22.2148 -22.2088
    -4.9586  -4.8077  -3.8380  -3.6042   3.1598   3.8778   5.4830   5.5201
     5.6988   6.3950   6.4157   6.4318   6.7221   6.7481   7.4204   8.1663
     8.7671   9.2294  11.1576  11.4297  11.5122  11.5282  11.5431  11.8060
    12.1228  12.2386  15.1660  15.3822  17.0876  17.6965  17.9860  18.0887
    18.2459  18.7264  19.5695  19.8530  19.8682  19.9234  20.4978  21.0528
    21.1785  21.5998  22.6399  22.8712  23.0275  23.7768  23.8048  24.4651
    24.6673  24.9197  25.4049  26.1591

     occupation numbers 
     1.0000   1.0000   1.0000   1.0000   1.0000   1.0000   1.0000   1.0000
     1.0000   1.0000   1.0000   1.0000   1.0000   1.0000   1.0000   1.0000
     1.0000   1.0000   1.0000   1.0000   1.0000   1.0000   1.0000   1.0160
    -0.0350  -0.0001  -0.0000  -0.0000  -0.0000  -0.0000  -0.0000  -0.0000
    -0.0000  -0.0000  -0.0000  -0.0000  -0.0000  -0.0000  -0.0000  -0.0000
    -0.0000  -0.0000  -0.0000  -0.0000  -0.0000  -0.0000  -0.0000  -0.0000
    -0.0000  -0.0000  -0.0000  -0.0000  -0.0000  -0.0000  -0.0000  -0.0000
    -0.0000  -0.0000  -0.0000  -0.0000

          k = 0.0835 0.2410-0.0000 (  3492 PWs)   bands (ev):

   -46.1862 -46.1773 -22.3909 -22.3866 -22.3803 -22.3754 -22.2416 -22.2358
    -4.6201  -4.4769  -3.7220  -3.5200   3.4684   4.1180   5.0039   5.0281
     5.2793   5.7897   6.1559   6.2846   6.6625   6.7087   7.3709   8.0451
     8.4838   8.6655  10.8763  11.3260  11.4282  11.4913  11.7752  11.8866
    12.6598  12.7916  16.0722  16.6386  17.1910  17.5093  17.7387  18.2493
    18.3068  18.7460  19.5164  19.6778  20.1726  20.2923  20.3364  20.6571
    21.2086  21.9636  22.0185  22.4659  22.6244  23.0071  23.4560  24.6780
    24.8711  25.4596  25.8933  27.3032

     occupation numbers 
     1.0000   1.0000   1.0000   1.0000   1.0000   1.0000   1.0000   1.0000
     1.0000   1.0000   1.0000   1.0000   1.0000   1.0000   1.0000   1.0000
     1.0000   1.0000   1.0000   1.0000   1.0000   1.0000   1.0000   1.0327
     0.3043  -0.0125  -0.0000  -0.0000  -0.0000  -0.0000  -0.0000  -0.0000
    -0.0000  -0.0000  -0.0000  -0.0000  -0.0000  -0.0000  -0.0000  -0.0000
    -0.0000  -0.0000  -0.0000  -0.0000  -0.0000  -0.0000  -0.0000  -0.0000
    -0.0000  -0.0000  -0.0000  -0.0000  -0.0000  -0.0000  -0.0000  -0.0000
    -0.0000  -0.0000  -0.0000  -0.0000

          k = 0.0835 0.3374-0.0000 (  3496 PWs)   bands (ev):

   -46.1745 -46.1656 -22.4906 -22.4863 -22.3654 -22.3609 -22.2726 -22.2670
    -4.1951  -4.0686  -3.5759  -3.4170   3.5729   3.9364   4.7428   4.7982
     4.9415   5.0973   5.7624   5.9773   6.8734   6.9439   7.1170   7.7701
     8.1330   8.2748  10.9119  11.3257  11.5205  11.8161  11.9352  12.2610
    13.1149  13.1986  16.1368  16.6840  16.7284  17.3107  17.5030  18.0710
    18.6081  18.9444  19.4448  19.7350  20.0015  20.4734  20.7111  20.8786
    21.2153  21.8021  22.6043  22.7127  22.7550  23.0195  23.6640  24.4051
    25.3055  26.3539  26.4306  26.8405

     occupation numbers 
     1.0000   1.0000   1.0000   1.0000   1.0000   1.0000   1.0000   1.0000
     1.0000   1.0000   1.0000   1.0000   1.0000   1.0000   1.0000   1.0000
     1.0000   1.0000   1.0000   1.0000   1.0000   1.0000   1.0000   1.0019
     1.0296   0.8858  -0.0000  -0.0000  -0.0000  -0.0000  -0.0000  -0.0000
    -0.0000  -0.0000  -0.0000  -0.0000  -0.0000  -0.0000  -0.0000  -0.0000
    -0.0000  -0.0000  -0.0000  -0.0000  -0.0000  -0.0000  -0.0000  -0.0000
    -0.0000  -0.0000  -0.0000  -0.0000  -0.0000  -0.0000  -0.0000  -0.0000
    -0.0000  -0.0000  -0.0000  -0.0000

          k = 0.0835 0.4338-0.0000 (  3501 PWs)   bands (ev):

   -46.1644 -46.1554 -22.5844 -22.5806 -22.3432 -22.3385 -22.2994 -22.2939
    -3.7841  -3.6873  -3.4341  -3.3238   3.3645   3.5344   4.2513   4.5205
     4.8213   4.9463   5.6106   5.7929   6.8191   6.9733   7.0822   7.5084
     8.1084   8.2939  11.2147  11.5201  11.7490  12.0052  12.2247  12.6696
    13.2871  13.3864  15.4146  15.9291  16.6471  16.9115  16.9656  17.9501
    18.3258  18.7696  19.0501  19.4094  19.9296  20.7417  20.9587  21.3350
    22.1532  22.2211  23.1622  23.3021  23.6659  24.2067  24.5043  24.7300
    25.3129  26.4233  26.5827  26.9858

     occupation numbers 
     1.0000   1.0000   1.0000   1.0000   1.0000   1.0000   1.0000   1.0000
     1.0000   1.0000   1.0000   1.0000   1.0000   1.0000   1.0000   1.0000
     1.0000   1.0000   1.0000   1.0000   1.0000   1.0000   1.0000   1.0000
     1.0342   0.8469  -0.0000  -0.0000  -0.0000  -0.0000  -0.0000  -0.0000
    -0.0000  -0.0000  -0.0000  -0.0000  -0.0000  -0.0000  -0.0000  -0.0000
    -0.0000  -0.0000  -0.0000  -0.0000  -0.0000  -0.0000  -0.0000  -0.0000
    -0.0000  -0.0000  -0.0000  -0.0000  -0.0000  -0.0000  -0.0000  -0.0000
    -0.0000  -0.0000  -0.0000  -0.0000

          k = 0.0835 0.5302-0.0000 (  3504 PWs)   bands (ev):

   -46.1585 -46.1495 -22.6378 -22.6343 -22.3304 -22.3256 -22.3148 -22.3094
    -3.5176  -3.4579  -3.3403  -3.2704   3.1870   3.2740   3.9530   4.2040
     4.7902   4.8326   5.5862   5.7025   6.6305   7.0388   7.1781   7.3582
     8.2816   8.5137  11.5160  11.6175  12.0046  12.1608  12.5067  12.9397
    13.1483  13.4614  14.4251  15.5899  16.6312  16.9134  17.1170  17.5096
    17.9404  18.1416  18.5406  19.3700  19.4814  20.1579  21.7058  22.1226
    22.7872  23.4636  23.6406  23.9043  24.3948  24.8958  24.9825  25.4145
    25.6675  26.0461  26.4070  26.9216

     occupation numbers 
     1.0000   1.0000   1.0000   1.0000   1.0000   1.0000   1.0000   1.0000
     1.0000   1.0000   1.0000   1.0000   1.0000   1.0000   1.0000   1.0000
     1.0000   1.0000   1.0000   1.0000   1.0000   1.0000   1.0000   1.0000
     0.8726   0.2240  -0.0000  -0.0000  -0.0000  -0.0000  -0.0000  -0.0000
    -0.0000  -0.0000  -0.0000  -0.0000  -0.0000  -0.0000  -0.0000  -0.0000
    -0.0000  -0.0000  -0.0000  -0.0000  -0.0000  -0.0000  -0.0000  -0.0000
    -0.0000  -0.0000  -0.0000  -0.0000  -0.0000  -0.0000  -0.0000  -0.0000
    -0.0000  -0.0000  -0.0000  -0.0000

          k = 0.1670 0.2892-0.0000 (  3500 PWs)   bands (ev):

   -46.1761 -46.1672 -22.4640 -22.4595 -22.3688 -22.3643 -22.2809 -22.2753
    -4.2555  -4.1255  -3.5948  -3.4289   3.6447   4.0827   4.8007   4.9490
     4.9855   5.1656   5.5490   5.8773   6.6786   6.7431   7.3995   7.9095
     8.2689   8.2772  10.7570  11.2880  11.5647  11.6302  11.9265  12.0059
    13.1764  13.2816  16.6274  16.9103  16.9614  17.7600  17.9467  18.3074
    18.3545  18.4907  19.4517  19.7695  19.8323  19.9794  20.1211  20.5124
    20.5405  22.1762  22.4230  22.7560  22.8723  22.8987  23.5603  24.8479
    25.6378  26.0774  26.6350  27.4951

     occupation numbers 
     1.0000   1.0000   1.0000   1.0000   1.0000   1.0000   1.0000   1.0000
     1.0000   1.0000   1.0000   1.0000   1.0000   1.0000   1.0000   1.0000
     1.0000   1.0000   1.0000   1.0000   1.0000   1.0000   1.0000   1.0118
     0.8969   0.8813  -0.0000  -0.0000  -0.0000  -0.0000  -0.0000  -0.0000
    -0.0000  -0.0000  -0.0000  -0.0000  -0.0000  -0.0000  -0.0000  -0.0000
    -0.0000  -0.0000  -0.0000  -0.0000  -0.0000  -0.0000  -0.0000  -0.0000
    -0.0000  -0.0000  -0.0000  -0.0000  -0.0000  -0.0000  -0.0000  -0.0000
    -0.0000  -0.0000  -0.0000  -0.0000

          k = 0.1670 0.3856-0.0000 (  3500 PWs)   bands (ev):

   -46.1659 -46.1570 -22.5423 -22.5383 -22.3467 -22.3420 -22.3242 -22.3188
    -3.8555  -3.7496  -3.4521  -3.3309   3.5839   3.8199   4.4006   4.5084
     4.8765   5.0817   5.3882   5.7766   6.4532   6.5371   7.1720   7.6160
     8.1891   8.2846  10.9164  11.6001  11.8273  11.9202  11.9568  12.3364
    13.4461  13.5369  16.1133  16.4135  16.7179  17.4939  17.7774  18.3189
    18.5335  18.8573  19.0493  19.4307  19.7688  20.0962  20.4764  20.6280
    21.1251  21.7496  22.0410  23.3619  23.5374  23.8998  23.9613  25.2830
    26.0877  26.6316  26.8168  27.4729

     occupation numbers 
     1.0000   1.0000   1.0000   1.0000   1.0000   1.0000   1.0000   1.0000
     1.0000   1.0000   1.0000   1.0000   1.0000   1.0000   1.0000   1.0000
     1.0000   1.0000   1.0000   1.0000   1.0000   1.0000   1.0000   1.0001
     1.0006   0.8664  -0.0000  -0.0000  -0.0000  -0.0000  -0.0000  -0.0000
    -0.0000  -0.0000  -0.0000  -0.0000  -0.0000  -0.0000  -0.0000  -0.0000
    -0.0000  -0.0000  -0.0000  -0.0000  -0.0000  -0.0000  -0.0000  -0.0000
    -0.0000  -0.0000  -0.0000  -0.0000  -0.0000  -0.0000  -0.0000  -0.0000
    -0.0000  -0.0000  -0.0000  -0.0000

          k = 0.1670 0.4820-0.0000 (  3495 PWs)   bands (ev):

   -46.1585 -46.1495 -22.5975 -22.5938 -22.3573 -22.3521 -22.3304 -22.3256
    -3.5300  -3.4596  -3.3315  -3.2563   3.4782   3.6032   3.9135   4.0425
     4.9000   4.9896   5.4988   5.7914   6.2630   6.4242   6.8440   7.3239
     8.3906   8.5256  11.2448  11.5636  12.0166  12.2555  12.3495  12.6388
    13.3019  13.6623  15.0243  16.1926  16.9636  17.0751  17.5676  17.7056
    18.4651  18.5520  18.7695  19.1656  19.7906  20.6605  20.9222  21.3271
    21.8655  22.0503  22.3978  23.0326  24.0163  24.6073  24.8412  25.7560
    25.9122  26.4770  26.6342  27.0610

     occupation numbers 
     1.0000   1.0000   1.0000   1.0000   1.0000   1.0000   1.0000   1.0000
     1.0000   1.0000   1.0000   1.0000   1.0000   1.0000   1.0000   1.0000
     1.0000   1.0000   1.0000   1.0000   1.0000   1.0000   1.0000   1.0000
     0.5874   0.1946  -0.0000  -0.0000  -0.0000  -0.0000  -0.0000  -0.0000
    -0.0000  -0.0000  -0.0000  -0.0000  -0.0000  -0.0000  -0.0000  -0.0000
    -0.0000  -0.0000  -0.0000  -0.0000  -0.0000  -0.0000  -0.0000  -0.0000
    -0.0000  -0.0000  -0.0000  -0.0000  -0.0000  -0.0000  -0.0000  -0.0000
    -0.0000  -0.0000  -0.0000  -0.0000

          k = 0.1670 0.5785-0.0000 (  3508 PWs)   bands (ev):

   -46.1558 -46.1468 -22.6173 -22.6137 -22.3696 -22.3644 -22.3245 -22.3196
    -3.3991  -3.3552  -3.2798  -3.2294   3.4705   3.5001   3.7382   3.8731
     4.8400   4.8922   5.6042   5.8032   6.2156   6.4284   6.6765   7.1972
     8.5420   8.7134  11.3302  11.3969  12.1818  12.5127  12.6177  12.7277
    13.1163  13.6745  14.5284  16.0253  16.9093  17.2865  17.5450  17.7555
    18.0047  18.4025  18.5875  18.9512  19.8803  20.3803  21.5032  21.6585
    22.0437  22.6250  22.7526  22.7736  24.4660  24.9080  25.4499  25.4960
    25.8434  26.2874  26.2971  27.0343

     occupation numbers 
     1.0000   1.0000   1.0000   1.0000   1.0000   1.0000   1.0000   1.0000
     1.0000   1.0000   1.0000   1.0000   1.0000   1.0000   1.0000   1.0000
     1.0000   1.0000   1.0000   1.0000   1.0000   1.0000   1.0000   1.0000
     0.1571  -0.0317  -0.0000  -0.0000  -0.0000  -0.0000  -0.0000  -0.0000
    -0.0000  -0.0000  -0.0000  -0.0000  -0.0000  -0.0000  -0.0000  -0.0000
    -0.0000  -0.0000  -0.0000  -0.0000  -0.0000  -0.0000  -0.0000  -0.0000
    -0.0000  -0.0000  -0.0000  -0.0000  -0.0000  -0.0000  -0.0000  -0.0000
    -0.0000  -0.0000  -0.0000  -0.0000

          k = 0.2505 0.4338-0.0000 (  3492 PWs)   bands (ev):

   -46.1585 -46.1495 -22.5706 -22.5668 -22.3853 -22.3801 -22.3305 -22.3257
    -3.5359  -3.4608  -3.3270  -3.2492   3.6406   3.8314   3.9159   3.9510
     4.9824   5.1911   5.4428   5.8342   5.8740   5.8875   6.9847   7.2865
     8.4410   8.4926  11.1079  11.5283  12.0343  12.1765  12.2972  12.4386
    13.6690  13.7243  15.7095  15.8399  16.7707  17.3890  17.9441  18.1445
    18.2734  18.7568  19.4995  19.7200  19.9146  20.5082  20.7333  20.8621
    20.8974  21.3471  21.6298  22.9568  24.0714  24.0756  24.4215  25.9034
    26.4989  26.5565  26.9669  27.0769

     occupation numbers 
     1.0000   1.0000   1.0000   1.0000   1.0000   1.0000   1.0000   1.0000
     1.0000   1.0000   1.0000   1.0000   1.0000   1.0000   1.0000   1.0000
     1.0000   1.0000   1.0000   1.0000   1.0000   1.0000   1.0000   1.0000
     0.4316   0.2797  -0.0000  -0.0000  -0.0000  -0.0000  -0.0000  -0.0000
    -0.0000  -0.0000  -0.0000  -0.0000  -0.0000  -0.0000  -0.0000  -0.0000
    -0.0000  -0.0000  -0.0000  -0.0000  -0.0000  -0.0000  -0.0000  -0.0000
    -0.0000  -0.0000  -0.0000  -0.0000  -0.0000  -0.0000  -0.0000  -0.0000
    -0.0000  -0.0000  -0.0000  -0.0000

          k = 0.2505 0.5302-0.0000 (  3476 PWs)   bands (ev):

   -46.1542 -46.1452 -22.5768 -22.5731 -22.4306 -22.4256 -22.3211 -22.3162
    -3.3348  -3.2967  -3.2392  -3.2001   3.5867   3.6366   3.8202   3.9385
     4.8644   5.0810   5.4056   5.6492   5.6676   5.9671   6.7198   6.9817
     8.7635   8.8265  11.0237  11.0902  12.3292  12.3766  12.4296  12.7652
    13.7177  13.9231  15.0766  15.8869  16.5380  16.9396  17.7624  18.3723
    18.6100  18.9748  19.6620  19.6672  20.0004  20.4925  20.7659  21.1276
    21.4533  21.6561  21.8231  22.1508  24.2048  24.6330  24.7752  25.1646
    25.5923  26.6208  26.7884  26.9373

     occupation numbers 
     1.0000   1.0000   1.0000   1.0000   1.0000   1.0000   1.0000   1.0000
     1.0000   1.0000   1.0000   1.0000   1.0000   1.0000   1.0000   1.0000
     1.0000   1.0000   1.0000   1.0000   1.0000   1.0000   1.0000   1.0000
    -0.0352  -0.0277  -0.0000  -0.0000  -0.0000  -0.0000  -0.0000  -0.0000
    -0.0000  -0.0000  -0.0000  -0.0000  -0.0000  -0.0000  -0.0000  -0.0000
    -0.0000  -0.0000  -0.0000  -0.0000  -0.0000  -0.0000  -0.0000  -0.0000
    -0.0000  -0.0000  -0.0000  -0.0000  -0.0000  -0.0000  -0.0000  -0.0000
    -0.0000  -0.0000  -0.0000  -0.0000

          k = 0.3340 0.5785-0.0000 (  3474 PWs)   bands (ev):

   -46.1526 -46.1436 -22.5457 -22.5422 -22.4811 -22.4760 -22.3176 -22.3127
    -3.2541  -3.2490  -3.1996  -3.1764   3.4611   3.4825   4.1934   4.3792
     4.6876   4.6971   5.2268   5.2366   5.7989   6.1105   6.6793   6.6951
     9.0207   9.0232  10.7547  10.7730  12.2966  12.3261  12.7698  12.7985
    14.0100  14.0292  15.2623  15.9172  15.9181  16.8360  17.5348  19.2659
    19.2661  19.4320  19.4391  19.9276  20.3324  20.3406  20.4203  21.0717
    21.3592  21.3606  21.4804  21.9975  24.5177  24.5410  24.7094  24.7263
    24.8595  26.1348  26.1687  27.2296

     occupation numbers 
     1.0000   1.0000   1.0000   1.0000   1.0000   1.0000   1.0000   1.0000
     1.0000   1.0000   1.0000   1.0000   1.0000   1.0000   1.0000   1.0000
     1.0000   1.0000   1.0000   1.0000   1.0000   1.0000   1.0000   1.0000
    -0.0038  -0.0037  -0.0000  -0.0000  -0.0000  -0.0000  -0.0000  -0.0000
    -0.0000  -0.0000  -0.0000  -0.0000  -0.0000  -0.0000  -0.0000  -0.0000
    -0.0000  -0.0000  -0.0000  -0.0000  -0.0000  -0.0000  -0.0000  -0.0000
    -0.0000  -0.0000  -0.0000  -0.0000  -0.0000  -0.0000  -0.0000  -0.0000
    -0.0000  -0.0000  -0.0000  -0.0000

     the Fermi energy is     8.4189 ev

!    total energy              =    -907.91819047 Ry

     total all-electron energy =    -18448.327213 Ry
     estimated scf accuracy    <          3.7E-10 Ry
     smearing contrib. (-TS)   =      -0.00116360 Ry
     internal energy E=F+TS    =    -907.91702687 Ry

     The total energy is F=E-TS. E is the sum of the following terms:
     one-electron contribution =    -151.16075216 Ry
     hartree contribution      =      98.71782362 Ry
     xc contribution           =     -65.40532626 Ry
     ewald contribution        =    -201.80745990 Ry
     one-center paw contrib.   =    -588.26131218 Ry
      -> PAW hartree energy AE =     101.18095405 Ry
      -> PAW hartree energy PS =    -100.66643356 Ry
      -> PAW xc energy AE      =    -324.84462300 Ry
      -> PAW xc energy PS      =      30.20001519 Ry
      -> total E_H with PAW    =      99.23234411 Ry
      -> total E_XC with PAW   =    -360.04993407 Ry

     convergence has been achieved in  15 iterations

     Forces acting on atoms (cartesian axes, Ry/au):

     atom    1 type  2   force =    -0.00000000   -0.00000000   -0.00228988
     atom    2 type  1   force =     0.00000000    0.00000000    0.00243887
     atom    3 type  2   force =     0.00000000    0.00000000   -0.00107746
     atom    4 type  2   force =     0.00000000    0.00000000   -0.00408689
     atom    5 type  1   force =    -0.00000000   -0.00000000    0.00092464
     atom    6 type  2   force =     0.00000000    0.00000000    0.00409072
     The non-local contrib.  to forces
     atom    1 type  2   force =     0.00000000    0.00000000   -0.09197173
     atom    2 type  1   force =    -0.00000000   -0.00000000    0.00340886
     atom    3 type  2   force =     0.00000000    0.00000000    0.07383545
     atom    4 type  2   force =    -0.00000000   -0.00000000    0.08099198
     atom    5 type  1   force =     0.00000000    0.00000000   -0.00143959
     atom    6 type  2   force =    -0.00000000   -0.00000000   -0.07221230
     The ionic contribution  to forces
     atom    1 type  2   force =    -0.00000000    0.00000000   14.40202475
     atom    2 type  1   force =     0.00000000   -0.00000001    2.29483366
     atom    3 type  2   force =    -0.00000000    0.00000000  -12.38370424
     atom    4 type  2   force =     0.00000000    0.00000000  -14.51466164
     atom    5 type  1   force =    -0.00000000   -0.00000000   -2.25311592
     atom    6 type  2   force =     0.00000000    0.00000000   12.45462339
     The local contribution  to forces
     atom    1 type  2   force =     0.00000000    0.00000000  -14.30933645
     atom    2 type  1   force =     0.00000000   -0.00000000   -2.29562160
     atom    3 type  2   force =    -0.00000001    0.00000002   12.30477581
     atom    4 type  2   force =     0.00000000    0.00000000   14.42595155
     atom    5 type  1   force =     0.00000000    0.00000000    2.25538325
     atom    6 type  2   force =     0.00000000    0.00000000  -12.37422504
     The core correction contribution to forces
     atom    1 type  2   force =     0.00000000   -0.00000000   -0.00303439
     atom    2 type  1   force =    -0.00000000    0.00000000   -0.00023135
     atom    3 type  2   force =     0.00000000   -0.00000000    0.00399424
     atom    4 type  2   force =    -0.00000000   -0.00000000    0.00366007
[...]
     1.0000   1.0000   1.0000   1.0000   1.0000   1.0000   1.0000   1.0017
     1.0355   0.2233  -0.0000  -0.0000  -0.0000  -0.0000  -0.0000  -0.0000
    -0.0000  -0.0000  -0.0000  -0.0000  -0.0000  -0.0000  -0.0000  -0.0000
    -0.0000  -0.0000  -0.0000  -0.0000  -0.0000  -0.0000  -0.0000  -0.0000
    -0.0000  -0.0000  -0.0000  -0.0000  -0.0000  -0.0000  -0.0000  -0.0000
    -0.0000  -0.0000  -0.0000  -0.0000

          k = 0.1662 0.2878-0.0000 (  3070 PWs)   bands (ev):

   -44.0759 -44.0758 -20.3741 -20.3740 -20.2793 -20.2787 -20.1953 -20.1953
    -2.6216  -2.0641  -2.0082  -1.2911   5.0597   6.1850   6.5216   6.7515
     6.9402   7.0356   7.5057   8.1802   8.4452   8.7134   9.0989  10.0927
    10.2368  10.3172  12.8500  13.3879  13.4989  13.7165  14.2288  14.3611
    15.0853  15.3333  18.4783  18.5931  19.3484  19.7478  20.0014  20.4635
    20.7931  21.2959  21.7455  21.7509  21.9263  22.0351  22.4281  23.2180
    23.6581  24.7585  24.8096  25.2278  25.5131  25.5300  26.0995  27.9852
    28.5093  28.8859  29.8876  30.7878

     occupation numbers 
     1.0000   1.0000   1.0000   1.0000   1.0000   1.0000   1.0000   1.0000
     1.0000   1.0000   1.0000   1.0000   1.0000   1.0000   1.0000   1.0000
     1.0000   1.0000   1.0000   1.0000   1.0000   1.0000   1.0000   1.0233
     1.0306   0.9818  -0.0000  -0.0000  -0.0000  -0.0000  -0.0000  -0.0000
    -0.0000  -0.0000  -0.0000  -0.0000  -0.0000  -0.0000  -0.0000  -0.0000
    -0.0000  -0.0000  -0.0000  -0.0000  -0.0000  -0.0000  -0.0000  -0.0000
    -0.0000  -0.0000  -0.0000  -0.0000  -0.0000  -0.0000  -0.0000  -0.0000
    -0.0000  -0.0000  -0.0000  -0.0000

          k = 0.1662 0.3838-0.0000 (  3051 PWs)   bands (ev):

   -44.0662 -44.0662 -20.4504 -20.4503 -20.2575 -20.2570 -20.2373 -20.2373
    -2.1896  -1.8048  -1.7399  -1.2642   5.1203   5.8092   6.0614   6.3865
     6.7421   7.0989   7.1301   8.0839   8.2202   8.5968   8.8030   9.7909
    10.1304  10.3733  12.9064  13.7214  13.8210  14.0068  14.1875  14.5834
    15.4466  15.5920  17.8440  18.4810  18.6249  19.9374  20.1170  20.4648
    20.7846  21.2906  21.7013  21.9809  22.1377  22.3252  22.5178  23.3382
    23.6241  24.6266  24.7635  25.7455  26.4888  26.5215  27.1287  28.6409
    28.9811  29.6494  30.0097  30.4126

     occupation numbers 
     1.0000   1.0000   1.0000   1.0000   1.0000   1.0000   1.0000   1.0000
     1.0000   1.0000   1.0000   1.0000   1.0000   1.0000   1.0000   1.0000
     1.0000   1.0000   1.0000   1.0000   1.0000   1.0000   1.0000   1.0004
     1.0296   0.9028  -0.0000  -0.0000  -0.0000  -0.0000  -0.0000  -0.0000
    -0.0000  -0.0000  -0.0000  -0.0000  -0.0000  -0.0000  -0.0000  -0.0000
    -0.0000  -0.0000  -0.0000  -0.0000  -0.0000  -0.0000  -0.0000  -0.0000
    -0.0000  -0.0000  -0.0000  -0.0000  -0.0000  -0.0000  -0.0000  -0.0000
    -0.0000  -0.0000  -0.0000  -0.0000

          k = 0.1662 0.4797-0.0000 (  3052 PWs)   bands (ev):

   -44.0591 -44.0591 -20.5042 -20.5041 -20.2694 -20.2694 -20.2415 -20.2411
    -1.8110  -1.6183  -1.5194  -1.2656   5.1120   5.4798   5.5786   6.0405
     6.8199   6.9756   7.1400   7.9126   8.0123   8.4492   8.5806   9.5620
    10.3384  10.6301  13.1719  13.6258  13.9796  14.3365  14.4706  14.8126
    15.2658  15.9528  16.8809  18.2680  18.7440  19.4540  19.7743  20.0239
    20.4287  21.2223  21.4671  22.4290  22.5977  22.8668  23.3034  23.9695
    24.2724  24.6130  24.6348  26.5282  26.7805  27.6543  27.8346  28.6732
    28.9395  29.4061  30.0259  30.1829

     occupation numbers 
     1.0000   1.0000   1.0000   1.0000   1.0000   1.0000   1.0000   1.0000
     1.0000   1.0000   1.0000   1.0000   1.0000   1.0000   1.0000   1.0000
     1.0000   1.0000   1.0000   1.0000   1.0000   1.0000   1.0000   1.0000
     0.9568   0.2023  -0.0000  -0.0000  -0.0000  -0.0000  -0.0000  -0.0000
    -0.0000  -0.0000  -0.0000  -0.0000  -0.0000  -0.0000  -0.0000  -0.0000
    -0.0000  -0.0000  -0.0000  -0.0000  -0.0000  -0.0000  -0.0000  -0.0000
    -0.0000  -0.0000  -0.0000  -0.0000  -0.0000  -0.0000  -0.0000  -0.0000
    -0.0000  -0.0000  -0.0000  -0.0000

          k = 0.1662 0.5757-0.0000 (  3062 PWs)   bands (ev):

   -44.0565 -44.0565 -20.5235 -20.5235 -20.2814 -20.2813 -20.2357 -20.2353
    -1.6377  -1.5298  -1.4616  -1.2822   5.1787   5.2696   5.4006   5.9020
     6.8361   6.9135   7.2372   7.7524   7.9096   8.3338   8.6244   9.4707
    10.4807  10.8279  13.2687  13.4087  14.1158  14.5176  14.6545  14.9185
    15.0683  16.0912  16.4849  18.4263  18.7325  18.8384  20.0865  20.2167
    20.2413  20.3897  21.3524  22.7103  22.7481  22.8472  23.9396  24.4170
    24.5228  24.6730  25.4091  26.1091  27.2051  27.4857  28.2974  28.5448
    28.7261  29.1371  29.6764  30.2546

     occupation numbers 
     1.0000   1.0000   1.0000   1.0000   1.0000   1.0000   1.0000   1.0000
     1.0000   1.0000   1.0000   1.0000   1.0000   1.0000   1.0000   1.0000
     1.0000   1.0000   1.0000   1.0000   1.0000   1.0000   1.0000   1.0000
     0.6402  -0.0330  -0.0000  -0.0000  -0.0000  -0.0000  -0.0000  -0.0000
    -0.0000  -0.0000  -0.0000  -0.0000  -0.0000  -0.0000  -0.0000  -0.0000
    -0.0000  -0.0000  -0.0000  -0.0000  -0.0000  -0.0000  -0.0000  -0.0000
    -0.0000  -0.0000  -0.0000  -0.0000  -0.0000  -0.0000  -0.0000  -0.0000
    -0.0000  -0.0000  -0.0000  -0.0000

          k = 0.2493 0.4317-0.0000 (  3046 PWs)   bands (ev):

   -44.0591 -44.0591 -20.4782 -20.4781 -20.2964 -20.2964 -20.2415 -20.2411
    -1.8239  -1.6166  -1.5125  -1.2561   5.2246   5.6990   5.8210   5.8322
     6.6301   7.0429   7.1055   7.8751   7.9628   8.1753   8.6348   9.3431
    10.4262  10.5736  13.0217  13.6201  13.9876  14.2783  14.5726  14.6684
    15.7068  15.8981  17.5703  17.5749  18.6318  20.0540  20.4401  20.6438
    20.7640  21.2230  21.5395  21.7530  22.5933  22.8568  22.9328  23.2534
    23.4327  24.5009  24.5556  26.3527  26.7905  27.4861  27.7966  28.6314
    29.0146  29.5141  30.2538  30.6956

     occupation numbers 
     1.0000   1.0000   1.0000   1.0000   1.0000   1.0000   1.0000   1.0000
     1.0000   1.0000   1.0000   1.0000   1.0000   1.0000   1.0000   1.0000
     1.0000   1.0000   1.0000   1.0000   1.0000   1.0000   1.0000   1.0000
     0.7896   0.3561  -0.0000  -0.0000  -0.0000  -0.0000  -0.0000  -0.0000
    -0.0000  -0.0000  -0.0000  -0.0000  -0.0000  -0.0000  -0.0000  -0.0000
    -0.0000  -0.0000  -0.0000  -0.0000  -0.0000  -0.0000  -0.0000  -0.0000
    -0.0000  -0.0000  -0.0000  -0.0000  -0.0000  -0.0000  -0.0000  -0.0000
    -0.0000  -0.0000  -0.0000  -0.0000

          k = 0.2493 0.5277-0.0000 (  3040 PWs)   bands (ev):

   -44.0550 -44.0550 -20.4846 -20.4845 -20.3402 -20.3401 -20.2323 -20.2319
    -1.5631  -1.4656  -1.4129  -1.2824   5.3759   5.4420   5.5631   5.7764
     6.6017   6.9425   7.1927   7.3298   7.9061   8.2034   8.4707   9.0180
    10.7665  10.9017  12.9617  13.0915  14.2847  14.4679  14.6270  14.9235
    15.7900  16.1923  16.9548  17.6983  18.9115  19.1315  20.5497  20.6061
    21.0529  21.1776  21.3346  22.1912  22.8722  23.0752  23.4790  23.5281
    24.2167  24.3765  24.4020  25.7064  27.2502  27.5374  27.8873  28.0046
    28.2039  28.9255  29.6443  31.4550

     occupation numbers 
     1.0000   1.0000   1.0000   1.0000   1.0000   1.0000   1.0000   1.0000
     1.0000   1.0000   1.0000   1.0000   1.0000   1.0000   1.0000   1.0000
     1.0000   1.0000   1.0000   1.0000   1.0000   1.0000   1.0000   1.0000
    -0.0081  -0.0325  -0.0000  -0.0000  -0.0000  -0.0000  -0.0000  -0.0000
    -0.0000  -0.0000  -0.0000  -0.0000  -0.0000  -0.0000  -0.0000  -0.0000
    -0.0000  -0.0000  -0.0000  -0.0000  -0.0000  -0.0000  -0.0000  -0.0000
    -0.0000  -0.0000  -0.0000  -0.0000  -0.0000  -0.0000  -0.0000  -0.0000
    -0.0000  -0.0000  -0.0000  -0.0000

          k = 0.3324 0.5757-0.0000 (  3030 PWs)   bands (ev):

   -44.0535 -44.0535 -20.4556 -20.4556 -20.3879 -20.3879 -20.2290 -20.2286
    -1.4222  -1.4222  -1.3471  -1.3470   5.3386   5.3387   5.8209   6.1595
     6.1595   6.5789   7.2689   7.4733   7.4733   8.4269   8.5460   8.5460
    11.0678  11.0678  12.7104  12.7330  14.5083  14.5084  14.7665  14.7666
    16.2085  16.2086  16.9019  18.2548  18.2548  18.8543  20.6471  21.2642
    21.2642  21.5687  21.5687  22.1658  22.6018  22.7258  23.8768  23.8768
    24.0516  24.1512  24.1513  25.3640  27.2346  27.2347  27.4509  27.4510
    28.4757  28.7856  28.7856  32.0721

     occupation numbers 
     1.0000   1.0000   1.0000   1.0000   1.0000   1.0000   1.0000   1.0000
     1.0000   1.0000   1.0000   1.0000   1.0000   1.0000   1.0000   1.0000
     1.0000   1.0000   1.0000   1.0000   1.0000   1.0000   1.0000   1.0000
    -0.0083  -0.0083  -0.0000  -0.0000  -0.0000  -0.0000  -0.0000  -0.0000
    -0.0000  -0.0000  -0.0000  -0.0000  -0.0000  -0.0000  -0.0000  -0.0000
    -0.0000  -0.0000  -0.0000  -0.0000  -0.0000  -0.0000  -0.0000  -0.0000
    -0.0000  -0.0000  -0.0000  -0.0000  -0.0000  -0.0000  -0.0000  -0.0000
    -0.0000  -0.0000  -0.0000  -0.0000

     the Fermi energy is    10.5265 ev

!    total energy              =    -907.92737945 Ry

     total all-electron energy =    -18448.336402 Ry
     estimated scf accuracy    <          7.6E-12 Ry
     smearing contrib. (-TS)   =      -0.00082576 Ry
     internal energy E=F+TS    =    -907.92655369 Ry

     The total energy is F=E-TS. E is the sum of the following terms:
     one-electron contribution =     -85.51718713 Ry
     hartree contribution      =      69.55148117 Ry
     xc contribution           =     -65.50690795 Ry
     ewald contribution        =    -238.19702541 Ry
     one-center paw contrib.   =    -588.25691437 Ry
      -> PAW hartree energy AE =     101.29929823 Ry
      -> PAW hartree energy PS =    -100.78485670 Ry
      -> PAW xc energy AE      =    -324.84732804 Ry
      -> PAW xc energy PS      =      30.20443104 Ry
      -> total E_H with PAW    =      70.06592270 Ry
      -> total E_XC with PAW   =    -360.14980494 Ry

     convergence has been achieved in  15 iterations

     Forces acting on atoms (cartesian axes, Ry/au):

     atom    1 type  2   force =     0.00000000   -0.00000000    0.00002923
     atom    2 type  1   force =     0.00000000   -0.00000000    0.00001074
     atom    3 type  2   force =     0.00000000   -0.00000000    0.00000736
     atom    4 type  2   force =    -0.00000000    0.00000000   -0.00004226
     atom    5 type  1   force =     0.00000000   -0.00000000   -0.00001947
     atom    6 type  2   force =    -0.00000000    0.00000000    0.00001440
     The non-local contrib.  to forces
     atom    1 type  2   force =     0.00000000   -0.00000000   -0.05266475
     atom    2 type  1   force =     0.00000000   -0.00000000    0.00001282
     atom    3 type  2   force =     0.00000000   -0.00000000    0.05254998
     atom    4 type  2   force =     0.00000000    0.00000000    0.05264827
     atom    5 type  1   force =     0.00000000   -0.00000000   -0.00001580
     atom    6 type  2   force =     0.00000000   -0.00000000   -0.05251871
     The ionic contribution  to forces
     atom    1 type  2   force =    -0.00000000    0.00000000    9.73877413
     atom    2 type  1   force =     0.00000000   -0.00000001    0.01632038
     atom    3 type  2   force =    -0.00000000    0.00000000   -9.72431199
     atom    4 type  2   force =     0.00000000    0.00000000   -9.73913301
     atom    5 type  1   force =    -0.00000000   -0.00000000   -0.01641000
     atom    6 type  2   force =     0.00000000   -0.00000000    9.72476049
     The local contribution  to forces
     atom    1 type  2   force =    -0.00000000    0.00000000   -9.68139778
     atom    2 type  1   force =     0.00000000   -0.00000000   -0.01631952
     atom    3 type  2   force =    -0.00000001    0.00000002    9.66708014
     atom    4 type  2   force =     0.00000000    0.00000000    9.68175263
     atom    5 type  1   force =     0.00000000    0.00000000    0.01640346
     atom    6 type  2   force =     0.00000000    0.00000000   -9.66753259
     The core correction contribution to forces
     atom    1 type  2   force =    -0.00000000   -0.00000000   -0.00468368
     atom    2 type  1   force =     0.00000000    0.00000000   -0.00000151
     atom    3 type  2   force =     0.00000000   -0.00000000    0.00468846
     atom    4 type  2   force =    -0.00000000   -0.00000000    0.00468517
     atom    5 type  1   force =     0.00000000   -0.00000000    0.00000155
     atom    6 type  2   force =    -0.00000000   -0.00000000   -0.00468963
     The Hubbard contrib.    to forces
     atom    1 type  2   force =     0.00000000    0.00000000    0.00000000
     atom    2 type  1   force =     0.00000000    0.00000000    0.00000000
     atom    3 type  2   force =     0.00000000    0.00000000    0.00000000
     atom    4 type  2   force =     0.00000000    0.00000000    0.00000000
     atom    5 type  1   force =     0.00000000    0.00000000    0.00000000
     atom    6 type  2   force =     0.00000000    0.00000000    0.00000000
     The SCF correction term to forces
     atom    1 type  2   force =     0.00000000   -0.00000000    0.00000098
     atom    2 type  1   force =    -0.00000000   -0.00000000   -0.00000176
     atom    3 type  2   force =     0.00000000   -0.00000000    0.00000044
     atom    4 type  2   force =    -0.00000000   -0.00000000    0.00000436
     atom    5 type  1   force =     0.00000000   -0.00000000    0.00000100
     atom    6 type  2   force =     0.00000000   -0.00000000   -0.00000549

     Total force =     0.000058     Total SCF correction =     0.000007
     SCF correction compared to forces is large: reduce conv_thr to get better values


     Computing stress (Cartesian axis) and pressure

          total   stress  (Ry/bohr**3)                   (kbar)     P=        0.26
  -0.00000004   0.00000000  -0.00000000           -0.01        0.00       -0.00
   0.00000000  -0.00000004  -0.00000000            0.00       -0.01       -0.00
  -0.00000000  -0.00000000   0.00000535           -0.00       -0.00        0.79

     kinetic stress (kbar)  16612.40     -0.00     -0.00
                               -0.00  16612.40     -0.00
                               -0.00     -0.00  16682.70

     local   stress (kbar) -19178.23     -0.00     -0.00
                               -0.00 -19178.23      0.00
                               -0.00      0.00   7666.66

     nonloc. stress (kbar)   8776.55     -0.00     -0.00
                               -0.00   8776.55      0.00
                               -0.00      0.00   8768.87

     hartree stress (kbar)   8726.38     -0.00     -0.00
                               -0.00   8726.38      0.00
                               -0.00      0.00  -3147.76

     exc-cor stress (kbar)    658.10      0.00      0.00
                                0.00    658.10      0.00
                                0.00      0.00    658.10

     corecor stress (kbar)  -4275.14     -0.00     -0.00
                               -0.00  -4275.14      0.00
                               -0.00      0.00  -4276.74

     ewald   stress (kbar) -11320.06      0.00      0.00
                                0.00 -11320.06     -0.00
                                0.00     -0.00 -26351.04

     hubbard stress (kbar)      0.00      0.00      0.00
                                0.00      0.00      0.00
                                0.00      0.00      0.00

     DFT-D   stress (kbar)      0.00      0.00      0.00
                                0.00      0.00      0.00
                                0.00      0.00      0.00

     XDM     stress (kbar)      0.00      0.00      0.00
                                0.00      0.00      0.00
                                0.00      0.00      0.00

     dft-nl  stress (kbar)      0.00      0.00      0.00
                                0.00      0.00      0.00
                                0.00      0.00      0.00

     TS-vdW  stress (kbar)      0.00      0.00      0.00
                                0.00      0.00      0.00
                                0.00      0.00      0.00



     Writing output data file ./tmp/NbS2_bi.save/

     init_run     :     14.43s CPU     14.64s WALL (       2 calls)
     electrons    :   4002.45s CPU   4079.51s WALL (      32 calls)
     update_pot   :    166.50s CPU    166.67s WALL (      30 calls)
     forces       :    148.71s CPU    150.40s WALL (      32 calls)
     stress       :    311.06s CPU    316.79s WALL (      32 calls)

     Called by init_run:
     wfcinit      :      5.20s CPU      5.28s WALL (       2 calls)
     wfcinit:atom :      0.03s CPU      0.03s WALL (      38 calls)
     wfcinit:wfcr :      5.05s CPU      5.13s WALL (      38 calls)
     potinit      :      3.13s CPU      3.16s WALL (       2 calls)
     hinit0       :      5.53s CPU      5.55s WALL (       2 calls)

     Called by electrons:
     c_bands      :   3337.55s CPU   3364.88s WALL (     417 calls)
     sum_band     :    521.52s CPU    551.70s WALL (     417 calls)
     v_of_rho     :      8.40s CPU      8.49s WALL (     442 calls)
     v_h          :      4.24s CPU      4.31s WALL (     442 calls)
     v_xc         :      4.73s CPU      4.75s WALL (     506 calls)
     newd         :    105.62s CPU    126.07s WALL (     442 calls)
     PAW_pot      :     27.11s CPU     27.13s WALL (     472 calls)
     mix_rho      :      8.24s CPU      8.43s WALL (     417 calls)

     Called by c_bands:
     init_us_2    :     17.00s CPU     17.13s WALL (   17670 calls)
     cegterg      :   3291.45s CPU   3318.41s WALL (    7923 calls)

     Called by sum_band:
     sum_band:wei :      0.62s CPU      0.63s WALL (     417 calls)
     sum_band:loo :    391.19s CPU    396.65s WALL (     417 calls)
     sum_band:buf :      6.40s CPU      6.43s WALL (    7923 calls)
     sum_band:ini :      6.90s CPU      6.92s WALL (    7923 calls)
     sum_band:cal :    109.38s CPU    109.86s WALL (    8493 calls)
     sum_band:bec :      1.02s CPU      1.02s WALL (    8493 calls)
     addusdens    :    124.10s CPU    148.54s WALL (     417 calls)
     addusd:skk   :      0.61s CPU      0.92s WALL (     834 calls)
     addusd:dgemm :     49.06s CPU     70.70s WALL (     834 calls)
     addusd:qvan2 :     66.33s CPU     66.42s WALL (     834 calls)

     Called by *egterg:
     cdiaghg      :    155.45s CPU    155.78s WALL (   25150 calls)
     cegterg:over :    418.58s CPU    419.62s WALL (   17930 calls)
     cegterg:upda :    188.64s CPU    188.89s WALL (   17930 calls)
     cegterg:last :    505.30s CPU    505.78s WALL (   12379 calls)
     h_psi        :   1626.90s CPU   1651.16s WALL (   25891 calls)
     s_psi        :    190.57s CPU    190.93s WALL (   25891 calls)
     g_psi        :      4.83s CPU      4.85s WALL (   17930 calls)

     Called by h_psi:
     h_psi:calbec :    237.38s CPU    238.59s WALL (   25891 calls)
     vloc_psi     :   1189.45s CPU   1212.18s WALL (   25891 calls)
     add_vuspsi   :    187.25s CPU    187.61s WALL (   25891 calls)

     General routines
     calbec       :    394.99s CPU    396.91s WALL (   37424 calls)
     fft          :     22.92s CPU     23.57s WALL (    2881 calls)
     ffts         :      0.86s CPU      0.88s WALL (     859 calls)
     fftw         :   1355.47s CPU   1381.15s WALL ( 2614746 calls)
     interpolate  :      4.21s CPU      4.36s WALL (     442 calls)

     Parallel routines
     fft_scatt_xy :    140.43s CPU    143.01s WALL ( 2618486 calls)
     fft_scatt_yz :    142.47s CPU    145.24s WALL ( 2618486 calls)

     PAW routines
     PAW_pot      :     27.11s CPU     27.13s WALL (     472 calls)
     PAW_symme    :      0.06s CPU      0.06s WALL (     889 calls)

     PWSCF        :      1h17m CPU      1h19m WALL


   This run was terminated on:   0: 1:18  15Jun2021            

=------------------------------------------------------------------------------=
   JOB DONE.
=------------------------------------------------------------------------------=
