
     Program PWSCF v.6.6 starts on 11Jun2021 at 21:12: 9 

     This program is part of the open-source Quantum ESPRESSO suite
     for quantum simulation of materials; please cite
         "P. Giannozzi et al., J. Phys.:Condens. Matter 21 395502 (2009);
         "P. Giannozzi et al., J. Phys.:Condens. Matter 29 465901 (2017);
          URL http://www.quantum-espresso.org", 
     in publications or presentations arising from this work. More details at
     http://www.quantum-espresso.org/quote

     Parallel version (MPI), running on     2 processors

     MPI processes distributed on     1 nodes
     R & G space division:  proc/nbgrp/npool/nimage =       2
     Fft bands division:     nmany     =       1
     Waiting for input...
     Reading input from standard input

     Current dimensions of program PWSCF are:
     Max number of different atomic species (ntypx) = 10
     Max number of k-points (npk) =  40000
     Max angular momentum in pseudopotentials (lmaxx) =  3
     file Nb.pz-spn-kjpaw_psl.1.0.0.UPF: wavefunction(s)  4S 4P 4D renormalized
     file S.pz-n-kjpaw_psl.0.1.UPF: wavefunction(s)  3P renormalized

     Subspace diagonalization in iterative solution of the eigenvalue problem:
     a serial algorithm will be used


     Parallelization info
     --------------------
     sticks:   dense  smooth     PW     G-vecs:    dense   smooth      PW
     Min         534     210     60                55224    14002    2322
     Max         535     211     61                55225    14021    2341
     Sum        1069     421    121               110449    28023    4663



     bravais-lattice index     =            4
     lattice parameter (alat)  =       6.2006  a.u.
     unit-cell volume          =     817.9674 (a.u.)^3
     number of atoms/cell      =            3
     number of atomic types    =            2
     number of electrons       =        25.00
     number of Kohn-Sham states=           30
     kinetic-energy cutoff     =      40.0000  Ry
     charge density cutoff     =     400.0000  Ry
     convergence threshold     =      1.0E-08
     mixing beta               =       0.7000
     number of iterations used =            8  plain     mixing
     Exchange-correlation= SLA PZ NOGX NOGC
                           (   1   1   0   0   0   0   0)

     celldm(1)=   6.200569  celldm(2)=   0.000000  celldm(3)=   3.961965
     celldm(4)=   0.000000  celldm(5)=   0.000000  celldm(6)=   0.000000

     crystal axes: (cart. coord. in units of alat)
               a(1) = (   1.000000   0.000000   0.000000 )  
               a(2) = (  -0.500000   0.866025   0.000000 )  
               a(3) = (   0.000000   0.000000   3.961965 )  

     reciprocal axes: (cart. coord. in units 2 pi/alat)
               b(1) = (  1.000000  0.577350 -0.000000 )  
               b(2) = (  0.000000  1.154701  0.000000 )  
               b(3) = (  0.000000 -0.000000  0.252400 )  


     PseudoPot. # 1 for Nb read from file:
     ../Nb.pz-spn-kjpaw_psl.1.0.0.UPF
     MD5 check sum: 38c2e04b3cc915696ca8dc9f46a23270
     Pseudo is Projector augmented-wave + core cor, Zval = 13.0
     Generated using "atomic" code by A. Dal Corso v.6.2.2
     Shape of augmentation charge: PSQ
     Using radial grid of 1227 points,  6 beta functions with: 
                l(1) =   0
                l(2) =   0
                l(3) =   1
                l(4) =   1
                l(5) =   2
                l(6) =   2
     Q(r) pseudized with 0 coefficients 


     PseudoPot. # 2 for S  read from file:
     ../S.pz-n-kjpaw_psl.0.1.UPF
     MD5 check sum: c0b1682311cf098e03f7841691d9a679
     Pseudo is Projector augmented-wave + core cor, Zval =  6.0
     Generated using "atomic" code by A. Dal Corso v.5.0.2 svn rev. 9415
     Shape of augmentation charge: PSQ
     Using radial grid of 1151 points,  4 beta functions with: 
                l(1) =   0
                l(2) =   0
                l(3) =   1
                l(4) =   1
     Q(r) pseudized with 0 coefficients 


     atomic species   valence    mass     pseudopotential
        Nb            13.00    92.90600     Nb( 1.00)
        S              6.00    32.06500     S ( 1.00)

     12 Sym. Ops. (no inversion) found ( 6 have fractional translation)


                                    s                        frac. trans.

      isym =  1     identity                                     

 cryst.   s( 1) = (     1          0          0      )
                  (     0          1          0      )
                  (     0          0          1      )

 cart.    s( 1) = (  1.0000000  0.0000000  0.0000000 )
                  (  0.0000000  1.0000000  0.0000000 )
                  (  0.0000000  0.0000000  1.0000000 )


      isym =  2     180 deg rotation - cart. axis [0,1,0]        

 cryst.   s( 2) = (    -1          0          0      )    f =(  0.0000000 )
                  (     1          1          0      )       (  0.0000000 )
                  (     0          0         -1      )       (  0.5000000 )

 cart.    s( 2) = ( -1.0000000  0.0000000  0.0000000 )    f =(  0.0000000 )
                  (  0.0000000  1.0000000  0.0000000 )       (  0.0000000 )
                  (  0.0000000  0.0000000 -1.0000000 )       (  1.9809826 )


      isym =  3     120 deg rotation - cryst. axis [0,0,1]       

 cryst.   s( 3) = (     0          1          0      )
                  (    -1         -1          0      )
                  (     0          0          1      )

 cart.    s( 3) = ( -0.5000000 -0.8660254  0.0000000 )
                  (  0.8660254 -0.5000000  0.0000000 )
                  (  0.0000000  0.0000000  1.0000000 )


      isym =  4     120 deg rotation - cryst. axis [0,0,-1]      

 cryst.   s( 4) = (    -1         -1          0      )
                  (     1          0          0      )
                  (     0          0          1      )

 cart.    s( 4) = ( -0.5000000  0.8660254  0.0000000 )
                  ( -0.8660254 -0.5000000  0.0000000 )
                  (  0.0000000  0.0000000  1.0000000 )


      isym =  5     180 deg rotation - cryst. axis [1,-1,0]      

 cryst.   s( 5) = (     0         -1          0      )    f =(  0.0000000 )
                  (    -1          0          0      )       (  0.0000000 )
                  (     0          0         -1      )       (  0.5000000 )

 cart.    s( 5) = (  0.5000000 -0.8660254  0.0000000 )    f =(  0.0000000 )
                  ( -0.8660254 -0.5000000  0.0000000 )       (  0.0000000 )
                  (  0.0000000  0.0000000 -1.0000000 )       (  1.9809826 )


      isym =  6     180 deg rotation - cryst. axis [2,1,0]       

 cryst.   s( 6) = (     1          1          0      )    f =(  0.0000000 )
                  (     0         -1          0      )       (  0.0000000 )
                  (     0          0         -1      )       (  0.5000000 )

 cart.    s( 6) = (  0.5000000  0.8660254  0.0000000 )    f =( -0.0000000 )
                  (  0.8660254 -0.5000000  0.0000000 )       (  0.0000000 )
                  (  0.0000000  0.0000000 -1.0000000 )       (  1.9809826 )


      isym =  7     inv. 180 deg rotation - cart. axis [0,0,1]   

 cryst.   s( 7) = (     1          0          0      )    f =(  0.0000000 )
                  (     0          1          0      )       (  0.0000000 )
                  (     0          0         -1      )       (  0.5000000 )

 cart.    s( 7) = (  1.0000000  0.0000000  0.0000000 )    f =(  0.0000000 )
                  (  0.0000000  1.0000000  0.0000000 )       (  0.0000000 )
                  (  0.0000000  0.0000000 -1.0000000 )       (  1.9809826 )


      isym =  8     inv. 180 deg rotation - cart. axis [1,0,0]   

 cryst.   s( 8) = (    -1          0          0      )
                  (     1          1          0      )
                  (     0          0          1      )

 cart.    s( 8) = ( -1.0000000  0.0000000  0.0000000 )
                  (  0.0000000  1.0000000  0.0000000 )
                  (  0.0000000  0.0000000  1.0000000 )


      isym =  9     inv.  60 deg rotation - cryst. axis [0,0,1]  

 cryst.   s( 9) = (    -1         -1          0      )    f =(  0.0000000 )
                  (     1          0          0      )       (  0.0000000 )
                  (     0          0         -1      )       (  0.5000000 )

 cart.    s( 9) = ( -0.5000000  0.8660254  0.0000000 )    f =( -0.0000000 )
                  ( -0.8660254 -0.5000000  0.0000000 )       (  0.0000000 )
                  (  0.0000000  0.0000000 -1.0000000 )       (  1.9809826 )


      isym = 10     inv.  60 deg rotation - cryst. axis [0,0,-1] 

 cryst.   s(10) = (     0          1          0      )    f =(  0.0000000 )
                  (    -1         -1          0      )       (  0.0000000 )
                  (     0          0         -1      )       (  0.5000000 )

 cart.    s(10) = ( -0.5000000 -0.8660254  0.0000000 )    f =(  0.0000000 )
                  (  0.8660254 -0.5000000  0.0000000 )       (  0.0000000 )
                  (  0.0000000  0.0000000 -1.0000000 )       (  1.9809826 )


      isym = 11     inv. 180 deg rotation - cryst. axis [0,1,0]  

 cryst.   s(11) = (     1          1          0      )
                  (     0         -1          0      )
                  (     0          0          1      )

 cart.    s(11) = (  0.5000000  0.8660254  0.0000000 )
                  (  0.8660254 -0.5000000  0.0000000 )
                  (  0.0000000  0.0000000  1.0000000 )


      isym = 12     inv. 180 deg rotation - cryst. axis [1,1,0]  

 cryst.   s(12) = (     0         -1          0      )
                  (    -1          0          0      )
                  (     0          0          1      )

 cart.    s(12) = (  0.5000000 -0.8660254  0.0000000 )
                  ( -0.8660254 -0.5000000  0.0000000 )
                  (  0.0000000  0.0000000  1.0000000 )


     point group D_3h (-62m)
     there are  6 classes
     the character table:

       E     2C3   3C2   s_h   2S3   3s_v 
A'_1   1.00  1.00  1.00  1.00  1.00  1.00
A'_2   1.00  1.00 -1.00  1.00  1.00 -1.00
E'     2.00 -1.00  0.00  2.00 -1.00  0.00
A''1   1.00  1.00  1.00 -1.00 -1.00 -1.00
A''2   1.00  1.00 -1.00 -1.00 -1.00  1.00
E''    2.00 -1.00  0.00 -2.00  1.00  0.00

     the symmetry operations in each class and the name of the first element:

     E        1
          identity                                               
     2C3      3    4
          120 deg rotation - cryst. axis [0,0,1]                 
     3C2      2    6    5
          180 deg rotation - cart. axis [0,1,0]                  
     s_h      7
          inv. 180 deg rotation - cart. axis [0,0,1]             
     2S3      9   10
          inv.  60 deg rotation - cryst. axis [0,0,1]            
     3s_v     8   11   12
          inv. 180 deg rotation - cart. axis [1,0,0]             

   Cartesian axes

     site n.     atom                  positions (alat units)
         1           S   tau(   1) = (   0.0000000   0.5773503   1.4630826  )
         2           Nb  tau(   2) = (   0.0000000   0.0000000   0.9904913  )
         3           S   tau(   3) = (   0.0000000   0.5773503   0.5178999  )

   Crystallographic axes

     site n.     atom                  positions (cryst. coord.)
         1           S   tau(   1) = (  0.3333333  0.6666667  0.3692821  )
         2           Nb  tau(   2) = (  0.0000000  0.0000000  0.2500000  )
         3           S   tau(   3) = (  0.3333333  0.6666667  0.1307179  )

     number of k points=    19  Methfessel-Paxton smearing, width (Ry)=  0.0200
                       cart. coord. in units 2pi/alat
        k(    1) = (   0.0000000   0.0000000   0.0000000), wk =   0.0138889
        k(    2) = (   0.0000000   0.0962250   0.0000000), wk =   0.0833333
        k(    3) = (   0.0000000   0.1924501   0.0000000), wk =   0.0833333
        k(    4) = (   0.0000000   0.2886751   0.0000000), wk =   0.0833333
        k(    5) = (   0.0000000   0.3849002   0.0000000), wk =   0.0833333
        k(    6) = (   0.0000000   0.4811252   0.0000000), wk =   0.0833333
        k(    7) = (   0.0000000  -0.5773503   0.0000000), wk =   0.0416667
        k(    8) = (   0.0833333   0.1443376   0.0000000), wk =   0.0833333
        k(    9) = (   0.0833333   0.2405626   0.0000000), wk =   0.1666667
        k(   10) = (   0.0833333   0.3367877   0.0000000), wk =   0.1666667
        k(   11) = (   0.0833333   0.4330127   0.0000000), wk =   0.1666667
        k(   12) = (   0.0833333   0.5292377   0.0000000), wk =   0.1666667
        k(   13) = (   0.1666667   0.2886751   0.0000000), wk =   0.0833333
        k(   14) = (   0.1666667   0.3849002   0.0000000), wk =   0.1666667
        k(   15) = (   0.1666667   0.4811252   0.0000000), wk =   0.1666667
        k(   16) = (   0.1666667   0.5773503   0.0000000), wk =   0.0833333
        k(   17) = (   0.2500000   0.4330127   0.0000000), wk =   0.0833333
        k(   18) = (   0.2500000   0.5292377   0.0000000), wk =   0.1666667
        k(   19) = (   0.3333333   0.5773503   0.0000000), wk =   0.0277778

                       cryst. coord.
        k(    1) = (   0.0000000   0.0000000   0.0000000), wk =   0.0138889
        k(    2) = (   0.0000000   0.0833333   0.0000000), wk =   0.0833333
        k(    3) = (   0.0000000   0.1666667   0.0000000), wk =   0.0833333
        k(    4) = (   0.0000000   0.2500000   0.0000000), wk =   0.0833333
        k(    5) = (   0.0000000   0.3333333   0.0000000), wk =   0.0833333
        k(    6) = (   0.0000000   0.4166667   0.0000000), wk =   0.0833333
        k(    7) = (   0.0000000  -0.5000000   0.0000000), wk =   0.0416667
        k(    8) = (   0.0833333   0.0833333   0.0000000), wk =   0.0833333
        k(    9) = (   0.0833333   0.1666667   0.0000000), wk =   0.1666667
        k(   10) = (   0.0833333   0.2500000   0.0000000), wk =   0.1666667
        k(   11) = (   0.0833333   0.3333333   0.0000000), wk =   0.1666667
        k(   12) = (   0.0833333   0.4166667   0.0000000), wk =   0.1666667
        k(   13) = (   0.1666667   0.1666667   0.0000000), wk =   0.0833333
        k(   14) = (   0.1666667   0.2500000   0.0000000), wk =   0.1666667
        k(   15) = (   0.1666667   0.3333333   0.0000000), wk =   0.1666667
        k(   16) = (   0.1666667   0.4166667   0.0000000), wk =   0.0833333
        k(   17) = (   0.2500000   0.2500000   0.0000000), wk =   0.0833333
        k(   18) = (   0.2500000   0.3333333   0.0000000), wk =   0.1666667
        k(   19) = (   0.3333333   0.3333333   0.0000000), wk =   0.0277778

     Dense  grid:   110449 G-vectors     FFT dimensions: (  40,  40, 160)

     Smooth grid:    28023 G-vectors     FFT dimensions: (  25,  25, 100)

     Dynamical RAM for                 wfc:       0.80 MB

     Dynamical RAM for     wfc (w. buffer):      15.99 MB

     Dynamical RAM for           str. fact:       1.69 MB

     Dynamical RAM for           local pot:       0.00 MB

     Dynamical RAM for          nlocal pot:       0.91 MB

     Dynamical RAM for                qrad:       3.21 MB

     Dynamical RAM for          rho,v,vnew:       5.46 MB

     Dynamical RAM for               rhoin:       1.82 MB

     Dynamical RAM for            rho*nmix:      13.48 MB

     Dynamical RAM for           G-vectors:       3.27 MB

     Dynamical RAM for          h,s,v(r/c):       0.16 MB

     Dynamical RAM for          <psi|beta>:       0.02 MB

     Dynamical RAM for                 psi:       1.60 MB

     Dynamical RAM for                hpsi:       1.60 MB

     Dynamical RAM for                spsi:       1.60 MB

     Dynamical RAM for      wfcinit/wfcrot:       1.62 MB

     Dynamical RAM for           addusdens:     158.42 MB

     Estimated static dynamical RAM per process >      53.23 MB

     Estimated max dynamical RAM per process >     211.66 MB

     Estimated total dynamical RAM >     423.31 MB

     Initial potential from superposition of free atoms

     starting charge   24.99887, renormalised to   25.00000

     negative rho (up, down):  5.493E-05 0.000E+00
     Starting wfcs are   21 randomized atomic wfcs +    9 random wfcs
     Checking if some PAW data can be deallocated... 
       PAW data deallocated on    1 nodes for type:  1

     total cpu time spent up to now is        3.1 secs

     Self-consistent Calculation

     iteration #  1     ecut=    40.00 Ry     beta= 0.70
     Davidson diagonalization with overlap
     ethr =  1.00E-02,  avg # of iterations =  7.2

     Threshold (ethr) on eigenvalues was too large:
     Diagonalizing with lowered threshold

     Davidson diagonalization with overlap
     ethr =  5.54E-04,  avg # of iterations =  1.9

     negative rho (up, down):  9.620E-05 0.000E+00

     total cpu time spent up to now is       12.2 secs

     total energy              =    -453.90133588 Ry
     estimated scf accuracy    <       0.13933337 Ry

     iteration #  2     ecut=    40.00 Ry     beta= 0.70
     Davidson diagonalization with overlap
     ethr =  5.57E-04,  avg # of iterations =  4.3

     negative rho (up, down):  9.559E-05 0.000E+00

     total cpu time spent up to now is       16.4 secs

     total energy              =    -453.92533446 Ry
     estimated scf accuracy    <       0.09756336 Ry

     iteration #  3     ecut=    40.00 Ry     beta= 0.70
     Davidson diagonalization with overlap
     ethr =  3.90E-04,  avg # of iterations =  2.1

     negative rho (up, down):  1.002E-04 0.000E+00

     total cpu time spent up to now is       19.9 secs

     total energy              =    -453.94045470 Ry
     estimated scf accuracy    <       0.07871754 Ry

     iteration #  4     ecut=    40.00 Ry     beta= 0.70
     Davidson diagonalization with overlap
     ethr =  3.15E-04,  avg # of iterations =  1.1

     negative rho (up, down):  1.016E-04 0.000E+00

     total cpu time spent up to now is       23.4 secs

     total energy              =    -453.95271142 Ry
     estimated scf accuracy    <       0.00135187 Ry

     iteration #  5     ecut=    40.00 Ry     beta= 0.70
     Davidson diagonalization with overlap
     ethr =  5.41E-06,  avg # of iterations =  6.5

     negative rho (up, down):  1.030E-04 0.000E+00

     total cpu time spent up to now is       27.8 secs

     total energy              =    -453.95289808 Ry
     estimated scf accuracy    <       0.00001227 Ry

     iteration #  6     ecut=    40.00 Ry     beta= 0.70
     Davidson diagonalization with overlap
     ethr =  4.91E-08,  avg # of iterations =  2.5

     negative rho (up, down):  1.034E-04 0.000E+00

     total cpu time spent up to now is       31.9 secs

     total energy              =    -453.95290254 Ry
     estimated scf accuracy    <       0.00000072 Ry

     iteration #  7     ecut=    40.00 Ry     beta= 0.70
     Davidson diagonalization with overlap
     ethr =  2.88E-09,  avg # of iterations =  2.2

     negative rho (up, down):  1.035E-04 0.000E+00

     total cpu time spent up to now is       36.1 secs

     End of self-consistent calculation

          k = 0.0000 0.0000 0.0000 (  3517 PWs)   bands (ev):

   -53.6079 -29.8380 -29.5998 -29.5998 -12.5560 -11.1798  -4.1731  -1.2901
    -1.2901  -0.3642  -0.1640  -0.1640   1.8938   4.1811   4.1811   4.4051
     4.4051   6.3212   6.8947   7.4896   9.4310   9.5265  11.6794  11.6794
    12.6712  13.8002  13.8003  13.8199  14.8566  16.5225

     occupation numbers 
     1.0000   1.0000   1.0000   1.0000   1.0000   1.0000   1.0000   1.0000
     1.0000   1.0000   1.0000   1.0000  -0.0000  -0.0000  -0.0000  -0.0000
    -0.0000  -0.0000  -0.0000  -0.0000  -0.0000  -0.0000  -0.0000  -0.0000
    -0.0000  -0.0000  -0.0000  -0.0000  -0.0000  -0.0000

          k = 0.0000 0.0962 0.0000 (  3505 PWs)   bands (ev):

   -53.6049 -29.8314 -29.6314 -29.6067 -12.4600 -11.1522  -4.0611  -1.5345
    -1.1921  -0.8487  -0.3249   0.1415   1.8143   4.0989   4.1893   4.3187
     4.3831   6.6344   7.2203   7.6143   9.5718   9.9803  11.3842  11.9765
    12.6288  13.1639  13.7888  13.8885  14.9083  16.3506

     occupation numbers 
     1.0000   1.0000   1.0000   1.0000   1.0000   1.0000   1.0000   1.0000
     1.0000   1.0000   1.0000   1.0000  -0.0001  -0.0000  -0.0000  -0.0000
    -0.0000  -0.0000  -0.0000  -0.0000  -0.0000  -0.0000  -0.0000  -0.0000
    -0.0000  -0.0000  -0.0000  -0.0000  -0.0000  -0.0000

          k = 0.0000 0.1925 0.0000 (  3483 PWs)   bands (ev):

   -53.5965 -29.8131 -29.7171 -29.6256 -12.1899 -11.0742  -3.7789  -2.0801
    -1.4806  -0.9228  -0.7026   0.2053   1.5002   3.9134   4.1308   4.1379
     4.8568   7.1171   7.9512   8.2513   9.9254  10.7868  10.8702  11.9587
    12.7706  13.1401  13.5587  13.8666  14.9968  15.4743

     occupation numbers 
     1.0000   1.0000   1.0000   1.0000   1.0000   1.0000   1.0000   1.0000
     1.0000   1.0000   1.0000   1.0001  -0.0155  -0.0000  -0.0000  -0.0000
    -0.0000  -0.0000  -0.0000  -0.0000  -0.0000  -0.0000  -0.0000  -0.0000
    -0.0000  -0.0000  -0.0000  -0.0000  -0.0000  -0.0000

          k = 0.0000 0.2887 0.0000 (  3487 PWs)   bands (ev):

   -53.5851 -29.8321 -29.7880 -29.6514 -11.7976 -10.9614  -3.5794  -2.5192
    -2.1187  -1.1241  -0.5564   0.0101   0.9991   3.9324   3.9858   4.4938
     5.3671   7.6531   8.4136   9.1701  10.2500  10.3320  10.8085  12.3527
    13.0194  13.5731  13.6320  14.2155  14.5890  15.1518

     occupation numbers 
     1.0000   1.0000   1.0000   1.0000   1.0000   1.0000   1.0000   1.0000
     1.0000   1.0000   1.0000   1.0000   0.5578  -0.0000  -0.0000  -0.0000
    -0.0000  -0.0000  -0.0000  -0.0000  -0.0000  -0.0000  -0.0000  -0.0000
    -0.0000  -0.0000  -0.0000  -0.0000  -0.0000  -0.0000

          k = 0.0000 0.3849 0.0000 (  3499 PWs)   bands (ev):

   -53.5736 -29.9449 -29.7627 -29.6770 -11.3696 -10.8401  -3.8159  -2.6892
    -2.5528  -1.4775  -0.2147  -0.2061   0.6930   3.9905   4.1776   4.9475
     5.7554   8.1836   8.7900   9.0142   9.9450  10.0315  11.7818  12.2216
    12.9317  13.1561  14.3201  14.3257  14.8944  15.4487

     occupation numbers 
     1.0000   1.0000   1.0000   1.0000   1.0000   1.0000   1.0000   1.0000
     1.0000   1.0000   1.0000   1.0000   1.0353  -0.0000  -0.0000  -0.0000
    -0.0000  -0.0000  -0.0000  -0.0000  -0.0000  -0.0000  -0.0000  -0.0000
    -0.0000  -0.0000  -0.0000  -0.0000  -0.0000  -0.0000

          k = 0.0000 0.4811 0.0000 (  3496 PWs)   bands (ev):

   -53.5652 -30.0260 -29.7442 -29.6957 -11.0249 -10.7448  -4.1411  -3.0910
    -2.5802  -1.7065  -0.3533   0.0264   0.7851   4.1229   4.4864   5.2406
     5.9751   7.8382   8.9398   8.9638  10.1095  10.5177  11.5866  11.8412
    12.3111  13.1433  13.9280  14.2401  15.2562  15.7323

     occupation numbers 
     1.0000   1.0000   1.0000   1.0000   1.0000   1.0000   1.0000   1.0000
     1.0000   1.0000   1.0000   1.0000   1.0028  -0.0000  -0.0000  -0.0000
    -0.0000  -0.0000  -0.0000  -0.0000  -0.0000  -0.0000  -0.0000  -0.0000
    -0.0000  -0.0000  -0.0000  -0.0000  -0.0000  -0.0000

          k = 0.0000-0.5774 0.0000 (  3496 PWs)   bands (ev):

   -53.5621 -30.0554 -29.7374 -29.7024 -10.8901 -10.7084  -4.2717  -3.2363
    -2.6285  -1.7853  -0.3968   0.1039   0.9160   4.2079   4.6552   5.3217
     6.0434   7.3709   9.0731   9.2273  10.2355  10.6963  11.6585  11.7329
    11.9626  12.2993  14.0018  14.3439  15.0912  16.1876

     occupation numbers 
     1.0000   1.0000   1.0000   1.0000   1.0000   1.0000   1.0000   1.0000
     1.0000   1.0000   1.0000   1.0000   0.7932  -0.0000  -0.0000  -0.0000
    -0.0000  -0.0000  -0.0000  -0.0000  -0.0000  -0.0000  -0.0000  -0.0000
    -0.0000  -0.0000  -0.0000  -0.0000  -0.0000  -0.0000

          k = 0.0833 0.1443 0.0000 (  3479 PWs)   bands (ev):

   -53.5992 -29.8188 -29.6884 -29.6212 -12.2769 -11.0992  -3.8602  -1.9209
    -1.2664  -1.0176  -0.6966   0.2997   1.6155   3.9507   4.0333   4.1851
     4.7643   6.9943   7.8453   7.9447   9.8217  10.6625  11.0161  12.1232
    12.4391  12.9678  13.7806  13.7868  14.9957  15.9481

     occupation numbers 
     1.0000   1.0000   1.0000   1.0000   1.0000   1.0000   1.0000   1.0000
     1.0000   1.0000   1.0000   1.0006  -0.0040  -0.0000  -0.0000  -0.0000
    -0.0000  -0.0000  -0.0000  -0.0000  -0.0000  -0.0000  -0.0000  -0.0000
    -0.0000  -0.0000  -0.0000  -0.0000  -0.0000  -0.0000

          k = 0.0833 0.2406 0.0000 (  3492 PWs)   bands (ev):

   -53.5893 -29.7972 -29.7847 -29.6477 -11.9448 -11.0030  -3.5859  -2.4006
    -1.8079  -1.2072  -0.7460   0.2743   1.1955   3.7689   4.1106   4.1812
     5.3083   7.4854   8.2566   9.0764  10.2874  10.5813  10.7736  12.0924
    12.8420  12.9717  13.7072  14.0788  14.3890  15.4635

     occupation numbers 
     1.0000   1.0000   1.0000   1.0000   1.0000   1.0000   1.0000   1.0000
     1.0000   1.0000   1.0000   1.0004   0.0575  -0.0000  -0.0000  -0.0000
    -0.0000  -0.0000  -0.0000  -0.0000  -0.0000  -0.0000  -0.0000  -0.0000
    -0.0000  -0.0000  -0.0000  -0.0000  -0.0000  -0.0000

          k = 0.0833 0.3368 0.0000 (  3496 PWs)   bands (ev):

   -53.5778 -29.8936 -29.7720 -29.6783 -11.5319 -10.8836  -3.6147  -2.5514
    -2.4411  -1.5375  -0.5156   0.0441   0.8138   3.7898   4.2149   4.5942
     5.7489   8.0598   8.7314   9.4898  10.0981  10.1875  11.3461  12.3632
    12.7618  13.1438  13.5036  14.2596  14.6656  15.6326

     occupation numbers 
     1.0000   1.0000   1.0000   1.0000   1.0000   1.0000   1.0000   1.0000
     1.0000   1.0000   1.0000   1.0000   0.9760  -0.0000  -0.0000  -0.0000
    -0.0000  -0.0000  -0.0000  -0.0000  -0.0000  -0.0000  -0.0000  -0.0000
    -0.0000  -0.0000  -0.0000  -0.0000  -0.0000  -0.0000

          k = 0.0833 0.4330 0.0000 (  3501 PWs)   bands (ev):

   -53.5679 -29.9862 -29.7501 -29.7048 -11.1397 -10.7715  -3.9252  -2.9875
    -2.5155  -1.6998  -0.3898  -0.2112   0.8026   4.0105   4.4061   5.0584
     5.9269   8.3347   8.9587   9.0911  10.1118  10.3766  11.7416  12.0941
    12.2171  13.2532  14.1071  14.3845  14.9313  15.1628

     occupation numbers 
     1.0000   1.0000   1.0000   1.0000   1.0000   1.0000   1.0000   1.0000
     1.0000   1.0000   1.0000   1.0000   0.9876  -0.0000  -0.0000  -0.0000
    -0.0000  -0.0000  -0.0000  -0.0000  -0.0000  -0.0000  -0.0000  -0.0000
    -0.0000  -0.0000  -0.0000  -0.0000  -0.0000  -0.0000

          k = 0.0833 0.5292 0.0000 (  3504 PWs)   bands (ev):

   -53.5621 -30.0390 -29.7374 -29.7199 -10.8937 -10.7025  -4.1416  -3.2964
    -2.5840  -1.7617  -0.3660  -0.3019   0.9992   4.1623   4.6517   5.4120
     5.8452   7.6301   9.3822   9.4168  10.2441  10.8251  11.3259  11.7684
    11.8939  12.8203  14.0832  14.2253  15.2956  15.5018

     occupation numbers 
     1.0000   1.0000   1.0000   1.0000   1.0000   1.0000   1.0000   1.0000
     1.0000   1.0000   1.0000   1.0000   0.5575  -0.0000  -0.0000  -0.0000
    -0.0000  -0.0000  -0.0000  -0.0000  -0.0000  -0.0000  -0.0000  -0.0000
    -0.0000  -0.0000  -0.0000  -0.0000  -0.0000  -0.0000

          k = 0.1667 0.2887 0.0000 (  3500 PWs)   bands (ev):

   -53.5794 -29.8673 -29.7754 -29.6865 -11.5899 -10.8983  -3.5057  -2.5430
    -2.2721  -1.7127  -0.7097   0.2559   0.8846   3.6681   4.2639   4.3469
     5.8173   8.0280   8.7147   9.9632  10.1861  10.4960  10.9709  12.2744
    12.4902  12.9869  13.0152  14.2516  14.6026  15.7290

     occupation numbers 
     1.0000   1.0000   1.0000   1.0000   1.0000   1.0000   1.0000   1.0000
     1.0000   1.0000   1.0000   1.0003   0.8641  -0.0000  -0.0000  -0.0000
    -0.0000  -0.0000  -0.0000  -0.0000  -0.0000  -0.0000  -0.0000  -0.0000
    -0.0000  -0.0000  -0.0000  -0.0000  -0.0000  -0.0000

          k = 0.1667 0.3849 0.0000 (  3500 PWs)   bands (ev):

   -53.5694 -29.9447 -29.7535 -29.7292 -11.2058 -10.7831  -3.6740  -2.9248
    -2.4242  -1.8057  -0.9147   0.0176   0.8360   3.8687   4.4290   4.7160
     6.0910   8.5741   9.2186   9.4596  10.3480  10.4720  11.5112  12.1255
    12.4179  12.8882  13.3746  14.4079  15.0365  15.3258

     occupation numbers 
     1.0000   1.0000   1.0000   1.0000   1.0000   1.0000   1.0000   1.0000
     1.0000   1.0000   1.0000   1.0000   0.9481  -0.0000  -0.0000  -0.0000
    -0.0000  -0.0000  -0.0000  -0.0000  -0.0000  -0.0000  -0.0000  -0.0000
    -0.0000  -0.0000  -0.0000  -0.0000  -0.0000  -0.0000

          k = 0.1667 0.4811 0.0000 (  3495 PWs)   bands (ev):

   -53.5621 -29.9992 -29.7618 -29.7375 -10.9007 -10.6907  -3.8327  -3.4053
    -2.4507  -1.7402  -1.0603  -0.2779   1.0531   4.0195   4.6863   5.1142
     6.0640   8.2383   9.5394   9.7319  10.5426  10.6418  11.3216  12.1630
    12.1641  13.2796  13.8000  14.2252  14.8352  15.1209

     occupation numbers 
     1.0000   1.0000   1.0000   1.0000   1.0000   1.0000   1.0000   1.0000
     1.0000   1.0000   1.0000   1.0000   0.3910  -0.0000  -0.0000  -0.0000
    -0.0000  -0.0000  -0.0000  -0.0000  -0.0000  -0.0000  -0.0000  -0.0000
    -0.0000  -0.0000  -0.0000  -0.0000  -0.0000  -0.0000

          k = 0.1667 0.5774 0.0000 (  3508 PWs)   bands (ev):

   -53.5595 -30.0188 -29.7740 -29.7316 -10.7829 -10.6548  -3.8837  -3.5778
    -2.5326  -1.6842  -1.0777  -0.4178   1.2230   3.9407   4.9426   5.3256
     5.9518   7.8059  10.1346  10.2332  10.2995  10.4669  11.4998  11.8914
    12.1986  12.7703  14.0546  14.1702  14.6889  15.5397

     occupation numbers 
     1.0000   1.0000   1.0000   1.0000   1.0000   1.0000   1.0000   1.0000
     1.0000   1.0000   1.0000   1.0000   0.0225  -0.0000  -0.0000  -0.0000
    -0.0000  -0.0000  -0.0000  -0.0000  -0.0000  -0.0000  -0.0000  -0.0000
    -0.0000  -0.0000  -0.0000  -0.0000  -0.0000  -0.0000

          k = 0.2500 0.4330 0.0000 (  3492 PWs)   bands (ev):

   -53.5621 -29.9727 -29.7894 -29.7375 -10.9042 -10.6847  -3.6417  -3.4553
    -2.3002  -1.7396  -1.5266  -0.2215   1.0599   3.9393   4.7097   4.9101
     6.2767   8.7182   9.3609   9.7449  10.3865  10.7918  11.8353  12.3224
    12.6831  13.1114  13.3745  14.1708  14.8344  14.8682

     occupation numbers 
     1.0000   1.0000   1.0000   1.0000   1.0000   1.0000   1.0000   1.0000
     1.0000   1.0000   1.0000   1.0000   0.3706  -0.0000  -0.0000  -0.0000
    -0.0000  -0.0000  -0.0000  -0.0000  -0.0000  -0.0000  -0.0000  -0.0000
    -0.0000  -0.0000  -0.0000  -0.0000  -0.0000  -0.0000

          k = 0.2500 0.5292 0.0000 (  3476 PWs)   bands (ev):

   -53.5579 -29.9790 -29.8339 -29.7282 -10.7210 -10.6221  -3.7737  -3.4966
    -2.4240  -1.8634  -1.5665  -0.4953   1.3886   3.6294   5.0247   5.1763
     6.3697   8.2880   9.3266  10.2252  10.8391  11.3597  12.1576  12.2952
    12.5977  13.1103  13.3798  14.0161  14.1856  14.7997

     occupation numbers 
     1.0000   1.0000   1.0000   1.0000   1.0000   1.0000   1.0000   1.0000
     1.0000   1.0000   1.0000   1.0000  -0.0330  -0.0000  -0.0000  -0.0000
    -0.0000  -0.0000  -0.0000  -0.0000  -0.0000  -0.0000  -0.0000  -0.0000
    -0.0000  -0.0000  -0.0000  -0.0000  -0.0000  -0.0000

          k = 0.3333 0.5774 0.0000 (  3474 PWs)   bands (ev):

   -53.5564 -29.9487 -29.8833 -29.7248 -10.6543 -10.5948  -3.9156  -3.1041
    -2.6321  -2.2180  -1.4268  -0.6499   1.6172   3.3246   4.9578   5.4378
     6.5486   8.4555   8.8429  10.4272  11.4001  11.9535  12.4044  12.4630
    12.7249  12.9661  13.5750  13.6602  13.8271  13.8629

     occupation numbers 
     1.0000   1.0000   1.0000   1.0000   1.0000   1.0000   1.0000   1.0000
     1.0000   1.0000   1.0000   1.0000  -0.0039  -0.0000  -0.0000  -0.0000
    -0.0000  -0.0000  -0.0000  -0.0000  -0.0000  -0.0000  -0.0000  -0.0000
    -0.0000  -0.0000  -0.0000  -0.0000  -0.0000  -0.0000

     the Fermi energy is     1.0177 ev

!    total energy              =    -453.95290272 Ry

     total all-electron energy =     -9224.157414 Ry
     estimated scf accuracy    <          9.7E-09 Ry
     smearing contrib. (-TS)   =      -0.00105275 Ry
     internal energy E=F+TS    =    -453.95184997 Ry

     The total energy is F=E-TS. E is the sum of the following terms:
     one-electron contribution =    -467.99814816 Ry
     hartree contribution      =     238.76303386 Ry
     xc contribution           =     -32.68974993 Ry
     ewald contribution        =     102.10449657 Ry
     one-center paw contrib.   =    -294.13148232 Ry
      -> PAW hartree energy AE =      85.70206525 Ry
      -> PAW hartree energy PS =     -85.21922282 Ry
      -> PAW xc energy AE      =    -276.36387691 Ry
      -> PAW xc energy PS      =      23.44743008 Ry
      -> total E_H with PAW    =     239.24587630 Ry
      -> total E_XC with PAW   =    -285.60619676 Ry

     convergence has been achieved in   7 iterations

     Writing output data file ./tmp/NbS2.save/

     init_run     :      1.92s CPU      2.07s WALL (       1 calls)
     electrons    :     31.47s CPU     33.01s WALL (       1 calls)

     Called by init_run:
     wfcinit      :      0.94s CPU      1.00s WALL (       1 calls)
     wfcinit:atom :      0.01s CPU      0.01s WALL (      19 calls)
     wfcinit:wfcr :      0.90s CPU      0.95s WALL (      19 calls)
     potinit      :      0.23s CPU      0.24s WALL (       1 calls)
     hinit0       :      0.51s CPU      0.51s WALL (       1 calls)

     Called by electrons:
     c_bands      :     23.77s CPU     24.17s WALL (       8 calls)
     sum_band     :      5.50s CPU      6.02s WALL (       8 calls)
     v_of_rho     :      0.16s CPU      0.17s WALL (       8 calls)
     v_h          :      0.08s CPU      0.09s WALL (       8 calls)
     v_xc         :      0.08s CPU      0.08s WALL (       8 calls)
     newd         :      1.66s CPU      2.03s WALL (       8 calls)
     PAW_pot      :      0.42s CPU      0.42s WALL (       8 calls)
     mix_rho      :      0.13s CPU      0.13s WALL (       8 calls)

     Called by c_bands:
     init_us_2    :      0.22s CPU      0.22s WALL (     323 calls)
     cegterg      :     23.32s CPU     23.69s WALL (     152 calls)

     Called by sum_band:
     sum_band:wei :      0.01s CPU      0.01s WALL (       8 calls)
     sum_band:loo :      3.34s CPU      3.39s WALL (       8 calls)
     sum_band:buf :      0.05s CPU      0.05s WALL (     152 calls)
     sum_band:ini :      0.10s CPU      0.10s WALL (     152 calls)
     sum_band:cal :      0.49s CPU      0.49s WALL (     152 calls)
     sum_band:bec :      0.00s CPU      0.00s WALL (     152 calls)
     addusdens    :      2.00s CPU      2.47s WALL (       8 calls)
     addusd:skk   :      0.01s CPU      0.01s WALL (      16 calls)
     addusd:dgemm :      0.54s CPU      0.93s WALL (      16 calls)
     addusd:qvan2 :      1.31s CPU      1.31s WALL (      16 calls)

     Called by *egterg:
     cdiaghg      :      0.74s CPU      0.74s WALL (     659 calls)
     cegterg:over :      2.06s CPU      2.07s WALL (     526 calls)
     cegterg:upda :      1.08s CPU      1.09s WALL (     526 calls)
     cegterg:last :      2.78s CPU      2.80s WALL (     317 calls)
     h_psi        :     15.42s CPU     15.77s WALL (     697 calls)
     s_psi        :      0.95s CPU      0.96s WALL (     697 calls)
     g_psi        :      0.05s CPU      0.05s WALL (     526 calls)

     Called by h_psi:
     h_psi:calbec :      1.32s CPU      1.35s WALL (     697 calls)
     vloc_psi     :     13.04s CPU     13.34s WALL (     697 calls)
     add_vuspsi   :      0.96s CPU      0.97s WALL (     697 calls)

     General routines
     calbec       :      1.80s CPU      1.84s WALL (     849 calls)
     fft          :      0.36s CPU      0.37s WALL (      47 calls)
     ffts         :      0.02s CPU      0.02s WALL (      16 calls)
     fftw         :     14.50s CPU     14.82s WALL (   28558 calls)
     interpolate  :      0.08s CPU      0.08s WALL (       8 calls)

     Parallel routines
     fft_scatt_xy :      1.52s CPU      1.55s WALL (   28621 calls)
     fft_scatt_yz :      1.56s CPU      1.61s WALL (   28621 calls)

     PAW routines
     PAW_pot      :      0.42s CPU      0.42s WALL (       8 calls)
     PAW_symme    :      0.00s CPU      0.00s WALL (      16 calls)

     PWSCF        :     34.45s CPU     36.43s WALL


   This run was terminated on:  21:12:46  11Jun2021            

=------------------------------------------------------------------------------=
   JOB DONE.
=------------------------------------------------------------------------------=
