
     Program PWSCF v.6.6 starts on 15Jun2021 at 21: 7:39 

     This program is part of the open-source Quantum ESPRESSO suite
     for quantum simulation of materials; please cite
         "P. Giannozzi et al., J. Phys.:Condens. Matter 21 395502 (2009);
         "P. Giannozzi et al., J. Phys.:Condens. Matter 29 465901 (2017);
          URL http://www.quantum-espresso.org", 
     in publications or presentations arising from this work. More details at
     http://www.quantum-espresso.org/quote

     Parallel version (MPI), running on     2 processors

     MPI processes distributed on     1 nodes
     R & G space division:  proc/nbgrp/npool/nimage =       2
     Fft bands division:     nmany     =       1
     Waiting for input...
     Reading input from standard input

     Current dimensions of program PWSCF are:
     Max number of different atomic species (ntypx) = 10
     Max number of k-points (npk) =  40000
     Max angular momentum in pseudopotentials (lmaxx) =  3
     file Nb.pz-spn-kjpaw_psl.1.0.0.UPF: wavefunction(s)  4S 4P 4D renormalized
     file S.pz-n-kjpaw_psl.0.1.UPF: wavefunction(s)  3P renormalized

     Subspace diagonalization in iterative solution of the eigenvalue problem:
     a serial algorithm will be used


     Parallelization info
     --------------------
     sticks:   dense  smooth     PW     G-vecs:    dense   smooth      PW
     Min         534     216     60                85552    21653    3588
     Max         535     217     61                85569    21664    3613
     Sum        1069     433    121               171121    43317    7201



     bravais-lattice index     =            4
     lattice parameter (alat)  =       6.2187  a.u.
     unit-cell volume          =    1265.7886 (a.u.)^3
     number of atoms/cell      =            6
     number of atomic types    =            2
     number of electrons       =        50.00
     number of Kohn-Sham states=           60
     kinetic-energy cutoff     =      40.0000  Ry
     charge density cutoff     =     400.0000  Ry
     convergence threshold     =      1.0E-08
     mixing beta               =       0.7000
     number of iterations used =            8  plain     mixing
     Exchange-correlation= SLA PZ NOGX NOGC
                           (   1   1   0   0   0   0   0)

     celldm(1)=   6.218718  celldm(2)=   0.000000  celldm(3)=   6.077543
     celldm(4)=   0.000000  celldm(5)=   0.000000  celldm(6)=   0.000000

     crystal axes: (cart. coord. in units of alat)
               a(1) = (   1.000000   0.000000   0.000000 )  
               a(2) = (  -0.500000   0.866025   0.000000 )  
               a(3) = (   0.000000   0.000000   6.077543 )  

     reciprocal axes: (cart. coord. in units 2 pi/alat)
               b(1) = (  1.000000  0.577350 -0.000000 )  
               b(2) = (  0.000000  1.154701  0.000000 )  
               b(3) = (  0.000000 -0.000000  0.164540 )  


     PseudoPot. # 1 for Nb read from file:
     ../Nb.pz-spn-kjpaw_psl.1.0.0.UPF
     MD5 check sum: 38c2e04b3cc915696ca8dc9f46a23270
     Pseudo is Projector augmented-wave + core cor, Zval = 13.0
     Generated using "atomic" code by A. Dal Corso v.6.2.2
     Shape of augmentation charge: PSQ
     Using radial grid of 1227 points,  6 beta functions with: 
                l(1) =   0
                l(2) =   0
                l(3) =   1
                l(4) =   1
                l(5) =   2
                l(6) =   2
     Q(r) pseudized with 0 coefficients 


     PseudoPot. # 2 for S  read from file:
     ../S.pz-n-kjpaw_psl.0.1.UPF
     MD5 check sum: c0b1682311cf098e03f7841691d9a679
     Pseudo is Projector augmented-wave + core cor, Zval =  6.0
     Generated using "atomic" code by A. Dal Corso v.5.0.2 svn rev. 9415
     Shape of augmentation charge: PSQ
     Using radial grid of 1151 points,  4 beta functions with: 
                l(1) =   0
                l(2) =   0
                l(3) =   1
                l(4) =   1
     Q(r) pseudized with 0 coefficients 


     atomic species   valence    mass     pseudopotential
        Nb            13.00    92.90600     Nb( 1.00)
        S              6.00    32.06500     S ( 1.00)

     No symmetry found


                                    s                        frac. trans.

      isym =  1     identity                                     

 cryst.   s( 1) = (     1          0          0      )
                  (     0          1          0      )
                  (     0          0          1      )

 cart.    s( 1) = (  1.0000000  0.0000000  0.0000000 )
                  (  0.0000000  1.0000000  0.0000000 )
                  (  0.0000000  0.0000000  1.0000000 )


     point group C_1 (1)    
     there are  1 classes
     the character table:

       E    
A      1.00

     the symmetry operations in each class and the name of the first element:

     E        1
          identity                                               

   Cartesian axes

     site n.     atom                  positions (alat units)
         1           S   tau(   1) = (  -0.0001201   0.5764567   1.3611707  )
         2           Nb  tau(   2) = (  -0.0003661  -0.0005878   0.8937920  )
         3           S   tau(   3) = (  -0.0005235   0.5771695   0.4201157  )
         4           S   tau(   4) = (   0.4990676   0.2881397   2.1405952  )
         5           Nb  tau(   5) = (  -0.0010239  -0.0006186   2.6079745  )
         6           S   tau(   6) = (   0.4990749   0.2881215   3.0816530  )

   Crystallographic axes

     site n.     atom                  positions (cryst. coord.)
         1           S   tau(   1) = (  0.3326973  0.6656349  0.2239673  )
         2           Nb  tau(   2) = ( -0.0007055 -0.0006788  0.1470647  )
         3           S   tau(   3) = (  0.3327055  0.6664579  0.0691259  )
         4           S   tau(   4) = (  0.6654252  0.3327151  0.3522139  )
         5           Nb  tau(   5) = ( -0.0013810 -0.0007143  0.4291166  )
         6           S   tau(   6) = (  0.6654219  0.3326941  0.5070557  )

     number of k points=    74  Methfessel-Paxton smearing, width (Ry)=  0.0200
                       cart. coord. in units 2pi/alat
        k(    1) = (   0.0000000   0.0000000   0.0000000), wk =   0.0138889
        k(    2) = (   0.0000000   0.0962250   0.0000000), wk =   0.0277778
        k(    3) = (   0.0000000   0.1924501   0.0000000), wk =   0.0277778
        k(    4) = (   0.0000000   0.2886751   0.0000000), wk =   0.0277778
        k(    5) = (   0.0000000   0.3849002   0.0000000), wk =   0.0277778
        k(    6) = (   0.0000000   0.4811252   0.0000000), wk =   0.0277778
        k(    7) = (   0.0000000  -0.5773503   0.0000000), wk =   0.0138889
        k(    8) = (   0.0833333   0.1443376   0.0000000), wk =   0.0277778
        k(    9) = (   0.0833333   0.2405626   0.0000000), wk =   0.0277778
        k(   10) = (   0.0833333   0.3367877   0.0000000), wk =   0.0277778
        k(   11) = (   0.0833333   0.4330127   0.0000000), wk =   0.0277778
        k(   12) = (   0.0833333   0.5292377   0.0000000), wk =   0.0277778
        k(   13) = (   0.1666667   0.2886751   0.0000000), wk =   0.0277778
        k(   14) = (   0.1666667   0.3849002   0.0000000), wk =   0.0277778
        k(   15) = (   0.1666667   0.4811252   0.0000000), wk =   0.0277778
        k(   16) = (   0.1666667   0.5773503   0.0000000), wk =   0.0277778
        k(   17) = (   0.2500000   0.4330127   0.0000000), wk =   0.0277778
        k(   18) = (   0.2500000   0.5292377   0.0000000), wk =   0.0277778
        k(   19) = (   0.3333333   0.5773503   0.0000000), wk =   0.0277778
        k(   20) = (  -0.0833333   0.0481125   0.0000000), wk =   0.0277778
        k(   21) = (   0.0833333   0.0481125   0.0000000), wk =   0.0277778
        k(   22) = (  -0.1666667   0.0962250   0.0000000), wk =   0.0277778
        k(   23) = (   0.1666667   0.0962250   0.0000000), wk =   0.0277778
        k(   24) = (  -0.2500000   0.1443376   0.0000000), wk =   0.0277778
        k(   25) = (   0.2500000   0.1443376   0.0000000), wk =   0.0277778
        k(   26) = (  -0.3333333   0.1924501   0.0000000), wk =   0.0277778
        k(   27) = (   0.3333333   0.1924501   0.0000000), wk =   0.0277778
        k(   28) = (  -0.4166667   0.2405626   0.0000000), wk =   0.0277778
        k(   29) = (   0.4166667   0.2405626   0.0000000), wk =   0.0277778
        k(   30) = (   0.5000000  -0.2886751   0.0000000), wk =   0.0138889
        k(   31) = (  -0.5000000  -0.2886751   0.0000000), wk =   0.0138889
        k(   32) = (  -0.0833333   0.1443376   0.0000000), wk =   0.0277778
        k(   33) = (   0.1666667   0.0000000   0.0000000), wk =   0.0277778
        k(   34) = (  -0.0833333   0.2405626   0.0000000), wk =   0.0277778
        k(   35) = (  -0.1666667   0.1924501   0.0000000), wk =   0.0277778
        k(   36) = (   0.2500000   0.0481125   0.0000000), wk =   0.0277778
        k(   37) = (  -0.1666667  -0.1924501   0.0000000), wk =   0.0277778
        k(   38) = (   0.2500000  -0.0481125   0.0000000), wk =   0.0277778
        k(   39) = (  -0.0833333   0.3367877   0.0000000), wk =   0.0277778
        k(   40) = (  -0.2500000   0.2405626   0.0000000), wk =   0.0277778
        k(   41) = (   0.3333333   0.0962250   0.0000000), wk =   0.0277778
        k(   42) = (  -0.2500000  -0.2405626   0.0000000), wk =   0.0277778
        k(   43) = (   0.3333333  -0.0962250   0.0000000), wk =   0.0277778
        k(   44) = (  -0.0833333   0.4330127   0.0000000), wk =   0.0277778
        k(   45) = (  -0.3333333   0.2886751   0.0000000), wk =   0.0277778
        k(   46) = (   0.4166667   0.1443376   0.0000000), wk =   0.0277778
        k(   47) = (  -0.3333333  -0.2886751   0.0000000), wk =   0.0277778
        k(   48) = (   0.4166667  -0.1443376   0.0000000), wk =   0.0277778
        k(   49) = (  -0.0833333   0.5292377   0.0000000), wk =   0.0277778
        k(   50) = (  -0.4166667   0.3367877   0.0000000), wk =   0.0277778
        k(   51) = (   0.5000000   0.1924501   0.0000000), wk =   0.0277778
        k(   52) = (  -0.4166667  -0.3367877   0.0000000), wk =   0.0277778
        k(   53) = (   0.5000000  -0.1924501   0.0000000), wk =   0.0277778
        k(   54) = (  -0.1666667   0.2886751   0.0000000), wk =   0.0277778
        k(   55) = (   0.3333333   0.0000000   0.0000000), wk =   0.0277778
        k(   56) = (  -0.1666667   0.3849002   0.0000000), wk =   0.0277778
        k(   57) = (  -0.2500000   0.3367877   0.0000000), wk =   0.0277778
        k(   58) = (   0.4166667   0.0481125   0.0000000), wk =   0.0277778
        k(   59) = (  -0.2500000  -0.3367877   0.0000000), wk =   0.0277778
        k(   60) = (   0.4166667  -0.0481125   0.0000000), wk =   0.0277778
        k(   61) = (  -0.1666667   0.4811252   0.0000000), wk =   0.0277778
        k(   62) = (  -0.3333333   0.3849002   0.0000000), wk =   0.0277778
        k(   63) = (   0.5000000   0.0962250   0.0000000), wk =   0.0277778
        k(   64) = (  -0.3333333  -0.3849002   0.0000000), wk =   0.0277778
        k(   65) = (   0.5000000  -0.0962250   0.0000000), wk =   0.0277778
        k(   66) = (  -0.4166667   0.4330127   0.0000000), wk =   0.0277778
        k(   67) = (   0.5833333   0.1443376   0.0000000), wk =   0.0277778
        k(   68) = (  -0.2500000   0.4330127   0.0000000), wk =   0.0277778
        k(   69) = (   0.5000000   0.0000000   0.0000000), wk =   0.0277778
        k(   70) = (  -0.2500000   0.5292377   0.0000000), wk =   0.0277778
        k(   71) = (  -0.3333333   0.4811252   0.0000000), wk =   0.0277778
        k(   72) = (   0.5833333   0.0481125   0.0000000), wk =   0.0277778
        k(   73) = (  -0.3333333  -0.4811252   0.0000000), wk =   0.0277778
        k(   74) = (   0.5833333  -0.0481125   0.0000000), wk =   0.0277778

                       cryst. coord.
        k(    1) = (   0.0000000   0.0000000   0.0000000), wk =   0.0138889
        k(    2) = (   0.0000000   0.0833333   0.0000000), wk =   0.0277778
        k(    3) = (   0.0000000   0.1666667   0.0000000), wk =   0.0277778
        k(    4) = (   0.0000000   0.2500000   0.0000000), wk =   0.0277778
        k(    5) = (   0.0000000   0.3333333   0.0000000), wk =   0.0277778
        k(    6) = (   0.0000000   0.4166667   0.0000000), wk =   0.0277778
        k(    7) = (   0.0000000  -0.5000000   0.0000000), wk =   0.0138889
        k(    8) = (   0.0833333   0.0833333   0.0000000), wk =   0.0277778
        k(    9) = (   0.0833333   0.1666667   0.0000000), wk =   0.0277778
        k(   10) = (   0.0833333   0.2500000   0.0000000), wk =   0.0277778
        k(   11) = (   0.0833333   0.3333333   0.0000000), wk =   0.0277778
        k(   12) = (   0.0833333   0.4166667   0.0000000), wk =   0.0277778
        k(   13) = (   0.1666667   0.1666667   0.0000000), wk =   0.0277778
        k(   14) = (   0.1666667   0.2500000   0.0000000), wk =   0.0277778
        k(   15) = (   0.1666667   0.3333333   0.0000000), wk =   0.0277778
        k(   16) = (   0.1666667   0.4166667   0.0000000), wk =   0.0277778
        k(   17) = (   0.2500000   0.2500000   0.0000000), wk =   0.0277778
        k(   18) = (   0.2500000   0.3333333   0.0000000), wk =   0.0277778
        k(   19) = (   0.3333333   0.3333333   0.0000000), wk =   0.0277778
        k(   20) = (  -0.0833333   0.0833333   0.0000000), wk =   0.0277778
        k(   21) = (   0.0833333   0.0000000   0.0000000), wk =   0.0277778
        k(   22) = (  -0.1666667   0.1666667   0.0000000), wk =   0.0277778
        k(   23) = (   0.1666667   0.0000000   0.0000000), wk =   0.0277778
        k(   24) = (  -0.2500000   0.2500000   0.0000000), wk =   0.0277778
        k(   25) = (   0.2500000   0.0000000   0.0000000), wk =   0.0277778
        k(   26) = (  -0.3333333   0.3333333   0.0000000), wk =   0.0277778
        k(   27) = (   0.3333333   0.0000000   0.0000000), wk =   0.0277778
        k(   28) = (  -0.4166667   0.4166667   0.0000000), wk =   0.0277778
        k(   29) = (   0.4166667   0.0000000   0.0000000), wk =   0.0277778
        k(   30) = (   0.5000000  -0.5000000   0.0000000), wk =   0.0138889
        k(   31) = (  -0.5000000   0.0000000   0.0000000), wk =   0.0138889
        k(   32) = (  -0.0833333   0.1666667   0.0000000), wk =   0.0277778
        k(   33) = (   0.1666667  -0.0833333   0.0000000), wk =   0.0277778
        k(   34) = (  -0.0833333   0.2500000   0.0000000), wk =   0.0277778
        k(   35) = (  -0.1666667   0.2500000   0.0000000), wk =   0.0277778
        k(   36) = (   0.2500000  -0.0833333   0.0000000), wk =   0.0277778
        k(   37) = (  -0.1666667  -0.0833333   0.0000000), wk =   0.0277778
        k(   38) = (   0.2500000  -0.1666667   0.0000000), wk =   0.0277778
        k(   39) = (  -0.0833333   0.3333333   0.0000000), wk =   0.0277778
        k(   40) = (  -0.2500000   0.3333333   0.0000000), wk =   0.0277778
        k(   41) = (   0.3333333  -0.0833333   0.0000000), wk =   0.0277778
        k(   42) = (  -0.2500000  -0.0833333   0.0000000), wk =   0.0277778
        k(   43) = (   0.3333333  -0.2500000   0.0000000), wk =   0.0277778
        k(   44) = (  -0.0833333   0.4166667   0.0000000), wk =   0.0277778
        k(   45) = (  -0.3333333   0.4166667   0.0000000), wk =   0.0277778
        k(   46) = (   0.4166667  -0.0833333   0.0000000), wk =   0.0277778
        k(   47) = (  -0.3333333  -0.0833333   0.0000000), wk =   0.0277778
        k(   48) = (   0.4166667  -0.3333333   0.0000000), wk =   0.0277778
        k(   49) = (  -0.0833333   0.5000000   0.0000000), wk =   0.0277778
        k(   50) = (  -0.4166667   0.5000000   0.0000000), wk =   0.0277778
        k(   51) = (   0.5000000  -0.0833333   0.0000000), wk =   0.0277778
        k(   52) = (  -0.4166667  -0.0833333   0.0000000), wk =   0.0277778
        k(   53) = (   0.5000000  -0.4166667   0.0000000), wk =   0.0277778
        k(   54) = (  -0.1666667   0.3333333   0.0000000), wk =   0.0277778
        k(   55) = (   0.3333333  -0.1666667   0.0000000), wk =   0.0277778
        k(   56) = (  -0.1666667   0.4166667   0.0000000), wk =   0.0277778
        k(   57) = (  -0.2500000   0.4166667   0.0000000), wk =   0.0277778
        k(   58) = (   0.4166667  -0.1666667   0.0000000), wk =   0.0277778
        k(   59) = (  -0.2500000  -0.1666667   0.0000000), wk =   0.0277778
        k(   60) = (   0.4166667  -0.2500000   0.0000000), wk =   0.0277778
        k(   61) = (  -0.1666667   0.5000000   0.0000000), wk =   0.0277778
        k(   62) = (  -0.3333333   0.5000000   0.0000000), wk =   0.0277778
        k(   63) = (   0.5000000  -0.1666667   0.0000000), wk =   0.0277778
        k(   64) = (  -0.3333333  -0.1666667   0.0000000), wk =   0.0277778
        k(   65) = (   0.5000000  -0.3333333   0.0000000), wk =   0.0277778
        k(   66) = (  -0.4166667   0.5833333   0.0000000), wk =   0.0277778
        k(   67) = (   0.5833333  -0.1666667   0.0000000), wk =   0.0277778
        k(   68) = (  -0.2500000   0.5000000   0.0000000), wk =   0.0277778
        k(   69) = (   0.5000000  -0.2500000   0.0000000), wk =   0.0277778
        k(   70) = (  -0.2500000   0.5833333   0.0000000), wk =   0.0277778
        k(   71) = (  -0.3333333   0.5833333   0.0000000), wk =   0.0277778
        k(   72) = (   0.5833333  -0.2500000   0.0000000), wk =   0.0277778
        k(   73) = (  -0.3333333  -0.2500000   0.0000000), wk =   0.0277778
        k(   74) = (   0.5833333  -0.3333333   0.0000000), wk =   0.0277778

     Dense  grid:   171121 G-vectors     FFT dimensions: (  40,  40, 243)

     Smooth grid:    43317 G-vectors     FFT dimensions: (  25,  25, 160)

     Dynamical RAM for                 wfc:       2.48 MB

     Dynamical RAM for     wfc (w. buffer):     185.67 MB

     Dynamical RAM for           str. fact:       2.61 MB

     Dynamical RAM for           local pot:       0.00 MB

     Dynamical RAM for          nlocal pot:       2.81 MB

     Dynamical RAM for                qrad:       3.21 MB

     Dynamical RAM for          rho,v,vnew:       8.38 MB

     Dynamical RAM for               rhoin:       2.79 MB

     Dynamical RAM for            rho*nmix:      20.89 MB

     Dynamical RAM for           G-vectors:       5.06 MB

     Dynamical RAM for          h,s,v(r/c):       0.66 MB

     Dynamical RAM for          <psi|beta>:       0.06 MB

     Dynamical RAM for                 psi:       4.95 MB

     Dynamical RAM for                hpsi:       4.95 MB

     Dynamical RAM for                spsi:       4.95 MB

     Dynamical RAM for      wfcinit/wfcrot:       5.03 MB

     Dynamical RAM for           addusdens:     248.03 MB

     Estimated static dynamical RAM per process >     242.78 MB

     Estimated max dynamical RAM per process >     490.81 MB

     Estimated total dynamical RAM >     981.63 MB

     Initial potential from superposition of free atoms

     starting charge   49.99775, renormalised to   50.00000

     negative rho (up, down):  1.197E-04 0.000E+00
     Starting wfcs are   42 randomized atomic wfcs +   18 random wfcs
     Checking if some PAW data can be deallocated... 

     total cpu time spent up to now is       21.4 secs

     Self-consistent Calculation

     iteration #  1     ecut=    40.00 Ry     beta= 0.70
     Davidson diagonalization with overlap
     ethr =  1.00E-02,  avg # of iterations =  7.5

     Threshold (ethr) on eigenvalues was too large:
     Diagonalizing with lowered threshold

     Davidson diagonalization with overlap
     ethr =  5.13E-04,  avg # of iterations =  2.6

     negative rho (up, down):  1.756E-04 0.000E+00

     total cpu time spent up to now is      200.7 secs

     total energy              =    -907.82546716 Ry
     estimated scf accuracy    <       0.25762860 Ry

     iteration #  2     ecut=    40.00 Ry     beta= 0.70
     Davidson diagonalization with overlap
     ethr =  5.15E-04,  avg # of iterations =  5.3

     negative rho (up, down):  1.874E-04 0.000E+00

     total cpu time spent up to now is      274.8 secs

     total energy              =    -907.77995574 Ry
     estimated scf accuracy    <       0.40616913 Ry

     iteration #  3     ecut=    40.00 Ry     beta= 0.70
     Davidson diagonalization with overlap
     ethr =  5.15E-04,  avg # of iterations =  7.3

     negative rho (up, down):  1.886E-04 0.000E+00

     total cpu time spent up to now is      353.8 secs

     total energy              =    -907.36126370 Ry
     estimated scf accuracy    <      14.88550470 Ry

     iteration #  4     ecut=    40.00 Ry     beta= 0.70
     Davidson diagonalization with overlap
     ethr =  5.15E-04,  avg # of iterations =  6.8

     negative rho (up, down):  1.864E-04 0.000E+00

     total cpu time spent up to now is      427.4 secs

     total energy              =    -907.84225678 Ry
     estimated scf accuracy    <       1.62630646 Ry

     iteration #  5     ecut=    40.00 Ry     beta= 0.70
     Davidson diagonalization with overlap
     ethr =  5.15E-04,  avg # of iterations =  3.0

     negative rho (up, down):  1.837E-04 0.000E+00

     total cpu time spent up to now is      490.2 secs

     total energy              =    -907.91559636 Ry
     estimated scf accuracy    <       0.09421920 Ry

     iteration #  6     ecut=    40.00 Ry     beta= 0.70
     Davidson diagonalization with overlap
     ethr =  1.88E-04,  avg # of iterations =  2.1

     negative rho (up, down):  1.841E-04 0.000E+00

     total cpu time spent up to now is      545.3 secs

     total energy              =    -907.91758660 Ry
     estimated scf accuracy    <       0.01715967 Ry

     iteration #  7     ecut=    40.00 Ry     beta= 0.70
     Davidson diagonalization with overlap
     ethr =  3.43E-05,  avg # of iterations =  7.5

     negative rho (up, down):  1.842E-04 0.000E+00

     total cpu time spent up to now is      614.4 secs

     total energy              =    -907.91940934 Ry
     estimated scf accuracy    <       0.02375782 Ry

     iteration #  8     ecut=    40.00 Ry     beta= 0.70
     Davidson diagonalization with overlap
     ethr =  3.43E-05,  avg # of iterations =  1.2

     negative rho (up, down):  1.846E-04 0.000E+00

     total cpu time spent up to now is      665.0 secs

     total energy              =    -907.91987431 Ry
     estimated scf accuracy    <       0.00097347 Ry

     iteration #  9     ecut=    40.00 Ry     beta= 0.70
     Davidson diagonalization with overlap
     ethr =  1.95E-06,  avg # of iterations =  8.4

     negative rho (up, down):  1.848E-04 0.000E+00

     total cpu time spent up to now is      736.1 secs

     total energy              =    -907.91988104 Ry
     estimated scf accuracy    <       0.00010119 Ry

     iteration # 10     ecut=    40.00 Ry     beta= 0.70
     Davidson diagonalization with overlap
     ethr =  2.02E-07,  avg # of iterations =  1.0

     negative rho (up, down):  1.849E-04 0.000E+00

     total cpu time spent up to now is      786.9 secs

     total energy              =    -907.91988301 Ry
     estimated scf accuracy    <       0.00007202 Ry

     iteration # 11     ecut=    40.00 Ry     beta= 0.70
     Davidson diagonalization with overlap
     ethr =  1.44E-07,  avg # of iterations =  1.0

     negative rho (up, down):  1.850E-04 0.000E+00

     total cpu time spent up to now is      838.2 secs

     total energy              =    -907.91988473 Ry
     estimated scf accuracy    <       0.00000048 Ry

     iteration # 12     ecut=    40.00 Ry     beta= 0.70
     Davidson diagonalization with overlap
     ethr =  9.54E-10,  avg # of iterations =  1.0

     negative rho (up, down):  1.850E-04 0.000E+00

     total cpu time spent up to now is      891.4 secs

     total energy              =    -907.91988480 Ry
     estimated scf accuracy    <       0.00000015 Ry

     iteration # 13     ecut=    40.00 Ry     beta= 0.70
     Davidson diagonalization with overlap
     ethr =  3.06E-10,  avg # of iterations =  1.0

     negative rho (up, down):  1.850E-04 0.000E+00

     total cpu time spent up to now is      940.8 secs

     End of self-consistent calculation

          k = 0.0000 0.0000 0.0000 (  5453 PWs)   bands (ev):

   -51.5095 -51.5095 -27.7341 -27.7336 -27.5091 -27.5091 -27.5089 -27.5088
   -10.7724 -10.3489  -9.3355  -8.8861  -2.6529  -1.6560   0.7243   0.7243
     0.7783   0.7787   1.1121   1.8679   1.8690   1.8954   1.8959   2.5365
     3.8370   4.7264   6.0348   6.0377   6.2980   6.3000   6.4203   6.4219
     6.5199   6.5210   8.4931   8.5865   8.9912   9.4429  10.9962  11.1897
    11.7111  13.2059  13.5609  13.5627  13.6133  13.6149  14.4404  15.3220
    15.3972  15.3991  16.2623  16.2723  16.2744  16.6588  17.9623  17.9668
    18.1062  18.2294  18.9146  19.0018

     occupation numbers 
     1.0000   1.0000   1.0000   1.0000   1.0000   1.0000   1.0000   1.0000
     1.0000   1.0000   1.0000   1.0000   1.0000   1.0000   1.0000   1.0000
     1.0000   1.0000   1.0000   1.0000   1.0000   1.0000   1.0000   1.0038
    -0.0009  -0.0000  -0.0000  -0.0000  -0.0000  -0.0000  -0.0000  -0.0000
    -0.0000  -0.0000  -0.0000  -0.0000  -0.0000  -0.0000  -0.0000  -0.0000
    -0.0000  -0.0000  -0.0000  -0.0000  -0.0000  -0.0000  -0.0000  -0.0000
    -0.0000  -0.0000  -0.0000  -0.0000  -0.0000  -0.0000  -0.0000  -0.0000
    -0.0000  -0.0000  -0.0000  -0.0000

          k = 0.0000 0.0962 0.0000 (  5423 PWs)   bands (ev):

   -51.5065 -51.5065 -27.7276 -27.7271 -27.5399 -27.5398 -27.5158 -27.5156
   -10.6789 -10.2554  -9.2973  -8.8662  -2.5489  -1.5517   0.4671   0.5404
     0.8091   0.8341   0.8772   1.5308   1.6981   1.7547   2.0115   2.6726
     3.7764   4.4052   6.1008   6.1303   6.1925   6.2550   6.3838   6.4231
     6.4569   6.5733   8.8609   9.0148   9.2414   9.6216  11.1343  11.6385
    12.0956  13.0318  13.2805  13.5103  13.7839  13.9714  14.5348  14.7510
    15.2878  15.3387  15.8115  16.2870  16.2936  16.5607  17.5746  18.0566
    18.2840  18.7900  18.7930  19.0188

     occupation numbers 
     1.0000   1.0000   1.0000   1.0000   1.0000   1.0000   1.0000   1.0000
     1.0000   1.0000   1.0000   1.0000   1.0000   1.0000   1.0000   1.0000
     1.0000   1.0000   1.0000   1.0000   1.0000   1.0000   1.0000   1.0179
    -0.0023  -0.0000  -0.0000  -0.0000  -0.0000  -0.0000  -0.0000  -0.0000
    -0.0000  -0.0000  -0.0000  -0.0000  -0.0000  -0.0000  -0.0000  -0.0000
    -0.0000  -0.0000  -0.0000  -0.0000  -0.0000  -0.0000  -0.0000  -0.0000
    -0.0000  -0.0000  -0.0000  -0.0000  -0.0000  -0.0000  -0.0000  -0.0000
    -0.0000  -0.0000  -0.0000  -0.0000

          k = 0.0000 0.1925 0.0000 (  5419 PWs)   bands (ev):

   -51.4985 -51.4985 -27.7097 -27.7093 -27.6234 -27.6233 -27.5343 -27.5341
   -10.4145  -9.9935  -9.1884  -8.8112  -2.2864  -1.2966  -0.1265   0.0225
     0.3194   0.9299   0.9972   1.1417   1.3663   1.4087   1.9669   2.6871
     3.4981   3.7988   5.8790   6.0066   6.0906   6.1855   6.2813   6.7495
     6.7813   7.0213   9.3561   9.7434  10.2000  10.4162  11.4981  12.1115
    12.4269  12.8052  13.2444  13.6378  13.6766  14.4656  14.4872  14.7888
    15.0137  15.3537  15.4742  16.2564  16.3626  16.4751  16.9605  17.5233
    17.7031  18.6504  18.6766  19.1804

     occupation numbers 
     1.0000   1.0000   1.0000   1.0000   1.0000   1.0000   1.0000   1.0000
     1.0000   1.0000   1.0000   1.0000   1.0000   1.0000   1.0000   1.0000
     1.0000   1.0000   1.0000   1.0000   1.0000   1.0000   1.0000   1.0203
    -0.0342  -0.0016  -0.0000  -0.0000  -0.0000  -0.0000  -0.0000  -0.0000
    -0.0000  -0.0000  -0.0000  -0.0000  -0.0000  -0.0000  -0.0000  -0.0000
    -0.0000  -0.0000  -0.0000  -0.0000  -0.0000  -0.0000  -0.0000  -0.0000
    -0.0000  -0.0000  -0.0000  -0.0000  -0.0000  -0.0000  -0.0000  -0.0000
    -0.0000  -0.0000  -0.0000  -0.0000

          k = 0.0000 0.2887 0.0000 (  5403 PWs)   bands (ev):

   -51.4875 -51.4874 -27.7356 -27.7354 -27.6851 -27.6848 -27.5594 -27.5592
   -10.0268  -9.6182  -9.0267  -8.7351  -2.0516  -1.2127  -0.6593  -0.4310
    -0.1745   0.3120   0.8043   0.9801   1.4614   1.5415   1.6691   2.5004
     3.0058   3.2642   5.8076   5.8819   6.1480   6.2389   6.4754   7.1483
     7.2477   7.5553   9.9059  10.2347  10.8555  11.4288  11.7568  12.0611
    12.1140  12.7448  12.8808  13.8025  14.0771  14.7570  14.8670  15.1560
    15.3570  15.4627  15.8753  16.1772  16.3892  16.6308  16.7592  16.9494
    17.1410  18.1058  18.4291  19.2688

     occupation numbers 
     1.0000   1.0000   1.0000   1.0000   1.0000   1.0000   1.0000   1.0000
     1.0000   1.0000   1.0000   1.0000   1.0000   1.0000   1.0000   1.0000
     1.0000   1.0000   1.0000   1.0000   1.0000   1.0000   1.0000   1.0022
     0.8645   0.1530  -0.0000  -0.0000  -0.0000  -0.0000  -0.0000  -0.0000
    -0.0000  -0.0000  -0.0000  -0.0000  -0.0000  -0.0000  -0.0000  -0.0000
    -0.0000  -0.0000  -0.0000  -0.0000  -0.0000  -0.0000  -0.0000  -0.0000
    -0.0000  -0.0000  -0.0000  -0.0000  -0.0000  -0.0000  -0.0000  -0.0000
    -0.0000  -0.0000  -0.0000  -0.0000

          k = 0.0000 0.3849 0.0000 (  5411 PWs)   bands (ev):

   -51.4764 -51.4764 -27.8455 -27.8453 -27.6605 -27.6603 -27.5843 -27.5842
    -9.5952  -9.2213  -8.8433  -8.6599  -2.0980  -1.6691  -1.0167  -0.6268
    -0.4016  -0.1430   0.4679   0.6389   1.3794   1.7448   1.9092   2.2768
     2.7306   2.9836   5.9313   6.0280   6.1301   6.4749   6.8822   7.4530
     7.5846   7.9842  10.2962  10.5645  10.6700  11.3082  11.4754  11.7907
    11.9378  12.9020  13.2640  14.0412  14.4679  14.5803  14.7877  15.0149
    15.4405  15.6085  16.2128  16.4451  16.6585  17.1032  17.4269  17.4681
    17.8700  17.9386  18.2549  18.2581

     occupation numbers 
     1.0000   1.0000   1.0000   1.0000   1.0000   1.0000   1.0000   1.0000
     1.0000   1.0000   1.0000   1.0000   1.0000   1.0000   1.0000   1.0000
     1.0000   1.0000   1.0000   1.0000   1.0000   1.0000   1.0000   1.0000
     1.0276   0.9069  -0.0000  -0.0000  -0.0000  -0.0000  -0.0000  -0.0000
    -0.0000  -0.0000  -0.0000  -0.0000  -0.0000  -0.0000  -0.0000  -0.0000
    -0.0000  -0.0000  -0.0000  -0.0000  -0.0000  -0.0000  -0.0000  -0.0000
    -0.0000  -0.0000  -0.0000  -0.0000  -0.0000  -0.0000  -0.0000  -0.0000
    -0.0000  -0.0000  -0.0000  -0.0000

          k = 0.0000 0.4811 0.0000 (  5401 PWs)   bands (ev):

   -51.4683 -51.4682 -27.9246 -27.9244 -27.6424 -27.6422 -27.6025 -27.6023
    -9.2309  -8.9299  -8.6862  -8.6035  -2.2917  -2.1071  -1.3560  -0.8932
    -0.4733  -0.3538   0.2424   0.4154   1.2051   1.9314   2.1640   2.1702
     2.8027   3.0552   6.1165   6.2252   6.3966   6.6819   7.0768   7.6148
     7.7584   8.2377   9.6545  10.2154  10.9588  11.0792  11.3355  11.7943
    12.2645  12.8750  13.4831  13.7726  13.7865  14.3260  14.7128  14.7691
    15.1686  15.4717  16.3081  16.6981  17.0832  17.2473  18.1289  18.2396
    18.4267  18.8927  18.9038  19.3175

     occupation numbers 
     1.0000   1.0000   1.0000   1.0000   1.0000   1.0000   1.0000   1.0000
     1.0000   1.0000   1.0000   1.0000   1.0000   1.0000   1.0000   1.0000
     1.0000   1.0000   1.0000   1.0000   1.0000   1.0000   1.0000   1.0000
     1.0354   0.7478  -0.0000  -0.0000  -0.0000  -0.0000  -0.0000  -0.0000
    -0.0000  -0.0000  -0.0000  -0.0000  -0.0000  -0.0000  -0.0000  -0.0000
    -0.0000  -0.0000  -0.0000  -0.0000  -0.0000  -0.0000  -0.0000  -0.0000
    -0.0000  -0.0000  -0.0000  -0.0000  -0.0000  -0.0000  -0.0000  -0.0000
    -0.0000  -0.0000  -0.0000  -0.0000

          k = 0.0000-0.5774 0.0000 (  5412 PWs)   bands (ev):

   -51.4653 -51.4653 -27.9533 -27.9532 -27.6358 -27.6356 -27.6092 -27.6090
    -9.0745  -8.8425  -8.6202  -8.5753  -2.3688  -2.2897  -1.4869  -1.0181
    -0.5293  -0.4212   0.1643   0.3382   1.1486   1.9915   2.1444   2.2516
     2.9248   3.1502   6.2267   6.2913   6.6948   6.7186   7.0749   7.6629
     7.8075   8.3181   9.1620  10.0358  10.7165  11.2730  11.4630  12.0017
    12.5680  12.7262  13.3658  13.4343  13.8596  14.3052  14.4588  14.7187
    14.8071  14.9514  16.2866  16.4668  17.6774  17.7762  18.0266  18.5771
    18.9331  19.3779  19.4682  19.9270

     occupation numbers 
     1.0000   1.0000   1.0000   1.0000   1.0000   1.0000   1.0000   1.0000
     1.0000   1.0000   1.0000   1.0000   1.0000   1.0000   1.0000   1.0000
     1.0000   1.0000   1.0000   1.0000   1.0000   1.0000   1.0000   1.0000
     0.9868   0.4655  -0.0000  -0.0000  -0.0000  -0.0000  -0.0000  -0.0000
    -0.0000  -0.0000  -0.0000  -0.0000  -0.0000  -0.0000  -0.0000  -0.0000
    -0.0000  -0.0000  -0.0000  -0.0000  -0.0000  -0.0000  -0.0000  -0.0000
    -0.0000  -0.0000  -0.0000  -0.0000  -0.0000  -0.0000  -0.0000  -0.0000
    -0.0000  -0.0000  -0.0000  -0.0000

          k = 0.0833 0.1443 0.0000 (  5395 PWs)   bands (ev):

   -51.5010 -51.5010 -27.7154 -27.7149 -27.5954 -27.5953 -27.5299 -27.5299
   -10.4999 -10.0776  -9.2236  -8.8286  -2.3633  -1.3673   0.0692   0.1604
     0.4802   0.9647   1.0240   1.1386   1.3837   1.3956   2.1260   2.7399
     3.6126   3.9444   5.9623   6.0403   6.0946   6.1941   6.2088   6.5585
     6.7052   6.9720   9.2320   9.5954   9.9303  10.1053  11.3859  12.2044
    12.4295  12.7892  13.2345  13.5039  13.8385  14.2575  14.4582  14.6123
    15.0595  15.0625  15.7582  15.9449  16.3812  16.6905  17.4409  17.5770
    18.0870  18.3691  18.7428  19.0793

     occupation numbers 
     1.0000   1.0000   1.0000   1.0000   1.0000   1.0000   1.0000   1.0000
     1.0000   1.0000   1.0000   1.0000   1.0000   1.0000   1.0000   1.0000
     1.0000   1.0000   1.0000   1.0000   1.0000   1.0000   1.0000   1.0291
    -0.0168  -0.0001  -0.0000  -0.0000  -0.0000  -0.0000  -0.0000  -0.0000
    -0.0000  -0.0000  -0.0000  -0.0000  -0.0000  -0.0000  -0.0000  -0.0000
    -0.0000  -0.0000  -0.0000  -0.0000  -0.0000  -0.0000  -0.0000  -0.0000
    -0.0000  -0.0000  -0.0000  -0.0000  -0.0000  -0.0000  -0.0000  -0.0000
    -0.0000  -0.0000  -0.0000  -0.0000

          k = 0.0833 0.2406 0.0000 (  5411 PWs)   bands (ev):

   -51.4915 -51.4915 -27.6946 -27.6942 -27.6888 -27.6888 -27.5557 -27.5557
   -10.1731  -9.7581  -9.0875  -8.7622  -2.0977  -1.1442  -0.4634  -0.3073
     0.0402   0.5342   0.7572   0.9666   1.2647   1.3471   2.0648   2.6617
     3.2230   3.3726   5.7711   5.9547   6.0358   6.1568   6.2841   6.8247
     7.2489   7.5015   9.7254  10.1156  10.9711  11.2711  11.7972  11.9877
    12.1874  12.8682  13.1747  13.7200  13.8284  14.4109  14.5928  14.9313
    14.9733  15.2478  15.3736  16.0594  16.2252  16.9509  17.0037  17.1996
    17.7886  17.8478  18.4935  19.3242

     occupation numbers 
     1.0000   1.0000   1.0000   1.0000   1.0000   1.0000   1.0000   1.0000
     1.0000   1.0000   1.0000   1.0000   1.0000   1.0000   1.0000   1.0000
     1.0000   1.0000   1.0000   1.0000   1.0000   1.0000   1.0000   1.0162
     0.2524  -0.0034  -0.0000  -0.0000  -0.0000  -0.0000  -0.0000  -0.0000
    -0.0000  -0.0000  -0.0000  -0.0000  -0.0000  -0.0000  -0.0000  -0.0000
    -0.0000  -0.0000  -0.0000  -0.0000  -0.0000  -0.0000  -0.0000  -0.0000
    -0.0000  -0.0000  -0.0000  -0.0000  -0.0000  -0.0000  -0.0000  -0.0000
    -0.0000  -0.0000  -0.0000  -0.0000

          k = 0.0833 0.3368 0.0000 (  5405 PWs)   bands (ev):

   -51.4804 -51.4804 -27.7955 -27.7954 -27.6696 -27.6693 -27.5856 -27.5855
    -9.7611  -9.3688  -8.9121  -8.6847  -1.9972  -1.3812  -0.7916  -0.5643
    -0.3262  -0.0355   0.3710   0.6891   1.4065   1.5915   1.8072   2.4417
     2.8485   3.0119   5.7592   5.9603   6.1744   6.3622   6.6077   7.1354
     7.7302   7.8835  10.3237  10.5681  11.0286  11.4267  11.8919  11.9901
    12.2756  12.8605  13.1508  13.8858  13.9248  14.5350  14.6889  15.0022
    15.2687  15.4190  15.7378  16.0232  16.3972  16.6984  17.2985  17.4108
    17.8394  18.1934  18.4978  18.7177

     occupation numbers 
     1.0000   1.0000   1.0000   1.0000   1.0000   1.0000   1.0000   1.0000
     1.0000   1.0000   1.0000   1.0000   1.0000   1.0000   1.0000   1.0000
     1.0000   1.0000   1.0000   1.0000   1.0000   1.0000   1.0000   1.0009
     1.0308   0.8518  -0.0000  -0.0000  -0.0000  -0.0000  -0.0000  -0.0000
    -0.0000  -0.0000  -0.0000  -0.0000  -0.0000  -0.0000  -0.0000  -0.0000
    -0.0000  -0.0000  -0.0000  -0.0000  -0.0000  -0.0000  -0.0000  -0.0000
    -0.0000  -0.0000  -0.0000  -0.0000  -0.0000  -0.0000  -0.0000  -0.0000
    -0.0000  -0.0000  -0.0000  -0.0000

          k = 0.0833 0.4330 0.0000 (  5419 PWs)   bands (ev):

   -51.4708 -51.4708 -27.8858 -27.8857 -27.6482 -27.6480 -27.6113 -27.6112
    -9.3575  -9.0185  -8.7361  -8.6177  -2.1393  -1.8449  -1.2062  -0.8429
    -0.4185  -0.3073   0.2065   0.4988   1.3718   1.6008   1.7570   2.2371
     2.8286   3.0289   5.9828   6.1417   6.3978   6.5600   7.0112   7.3697
     7.9187   8.0741  10.2246  10.5840  10.9417  11.5312  11.5778  11.7079
    12.2036  13.0025  13.4067  13.5446  13.8894  14.4718  14.8360  14.9520
    15.3806  15.6574  16.2359  16.4255  16.7949  17.0069  17.2415  17.6309
    17.9854  18.3640  18.8644  19.0857

     occupation numbers 
     1.0000   1.0000   1.0000   1.0000   1.0000   1.0000   1.0000   1.0000
     1.0000   1.0000   1.0000   1.0000   1.0000   1.0000   1.0000   1.0000
     1.0000   1.0000   1.0000   1.0000   1.0000   1.0000   1.0000   1.0000
     1.0343   0.8137  -0.0000  -0.0000  -0.0000  -0.0000  -0.0000  -0.0000
    -0.0000  -0.0000  -0.0000  -0.0000  -0.0000  -0.0000  -0.0000  -0.0000
    -0.0000  -0.0000  -0.0000  -0.0000  -0.0000  -0.0000  -0.0000  -0.0000
    -0.0000  -0.0000  -0.0000  -0.0000  -0.0000  -0.0000  -0.0000  -0.0000
    -0.0000  -0.0000  -0.0000  -0.0000

          k = 0.0833 0.5292 0.0000 (  5416 PWs)   bands (ev):

   -51.4653 -51.4653 -27.9374 -27.9372 -27.6358 -27.6356 -27.6262 -27.6260
    -9.0842  -8.8366  -8.6168  -8.5704  -2.2593  -2.1607  -1.4772  -1.1074
    -0.4926  -0.4292   0.1604   0.4053   1.2442   1.5659   1.8737   2.1227
     3.0085   3.2305   6.1608   6.2581   6.6591   6.7905   7.2358   7.5401
     7.7834   8.1510   9.4165  10.3250  11.1414  11.4749  11.6857  12.0842
    12.5916  12.7719  12.9145  13.6204  13.7190  14.1653  14.6122  14.7460
    15.0740  15.4984  16.1843  16.7328  17.2378  17.3676  17.8752  18.0560
    18.2773  18.8152  19.0498  19.4524

     occupation numbers 
     1.0000   1.0000   1.0000   1.0000   1.0000   1.0000   1.0000   1.0000
     1.0000   1.0000   1.0000   1.0000   1.0000   1.0000   1.0000   1.0000
     1.0000   1.0000   1.0000   1.0000   1.0000   1.0000   1.0000   1.0000
     0.8589   0.2327  -0.0000  -0.0000  -0.0000  -0.0000  -0.0000  -0.0000
    -0.0000  -0.0000  -0.0000  -0.0000  -0.0000  -0.0000  -0.0000  -0.0000
    -0.0000  -0.0000  -0.0000  -0.0000  -0.0000  -0.0000  -0.0000  -0.0000
    -0.0000  -0.0000  -0.0000  -0.0000  -0.0000  -0.0000  -0.0000  -0.0000
    -0.0000  -0.0000  -0.0000  -0.0000

          k = 0.1667 0.2887 0.0000 (  5418 PWs)   bands (ev):

   -51.4819 -51.4819 -27.7699 -27.7698 -27.6729 -27.6726 -27.5935 -27.5934
    -9.8202  -9.4222  -8.9356  -8.6927  -1.9454  -1.2117  -0.6210  -0.5780
    -0.2327  -0.0720   0.2276   0.6639   1.2283   1.3926   2.1083   2.5393
     2.9372   2.9788   5.6538   5.9401   6.1938   6.3109   6.4245   6.9712
     7.7964   7.9460  10.2853  10.6169  11.5697  11.6144  11.9103  12.3350
    12.4680  12.9004  12.9366  13.8373  13.8614  14.3217  14.4400  14.5331
    14.8036  15.1936  15.2935  16.0289  16.3581  16.6187  17.4209  17.8010
    17.9130  18.1931  18.4332  19.6250

     occupation numbers 
     1.0000   1.0000   1.0000   1.0000   1.0000   1.0000   1.0000   1.0000
     1.0000   1.0000   1.0000   1.0000   1.0000   1.0000   1.0000   1.0000
     1.0000   1.0000   1.0000   1.0000   1.0000   1.0000   1.0000   1.0039
     0.9736   0.9150  -0.0000  -0.0000  -0.0000  -0.0000  -0.0000  -0.0000
    -0.0000  -0.0000  -0.0000  -0.0000  -0.0000  -0.0000  -0.0000  -0.0000
    -0.0000  -0.0000  -0.0000  -0.0000  -0.0000  -0.0000  -0.0000  -0.0000
    -0.0000  -0.0000  -0.0000  -0.0000  -0.0000  -0.0000  -0.0000  -0.0000
    -0.0000  -0.0000  -0.0000  -0.0000

          k = 0.1667 0.3849 0.0000 (  5409 PWs)   bands (ev):

   -51.4723 -51.4723 -27.8454 -27.8453 -27.6515 -27.6513 -27.6351 -27.6351
    -9.4300  -9.0719  -8.7607  -8.6207  -1.9713  -1.5206  -1.0393  -0.8730
    -0.4124  -0.2296   0.0411   0.5605   1.0130   1.2141   1.8592   2.2862
     2.8715   2.9858   5.7576   6.2015   6.4531   6.4768   6.7490   7.1778
     8.0995   8.1621  10.8309  10.9728  11.0625  11.3850  12.0307  12.3124
    12.5629  12.9934  13.3021  13.6453  13.9460  14.2768  14.7283  14.7461
    15.1429  15.3651  15.5241  15.6533  16.3986  17.0116  17.2785  17.7802
    18.1212  18.2952  18.7209  19.0592

     occupation numbers 
     1.0000   1.0000   1.0000   1.0000   1.0000   1.0000   1.0000   1.0000
     1.0000   1.0000   1.0000   1.0000   1.0000   1.0000   1.0000   1.0000
     1.0000   1.0000   1.0000   1.0000   1.0000   1.0000   1.0000   1.0000
     1.0233   0.9030  -0.0000  -0.0000  -0.0000  -0.0000  -0.0000  -0.0000
    -0.0000  -0.0000  -0.0000  -0.0000  -0.0000  -0.0000  -0.0000  -0.0000
    -0.0000  -0.0000  -0.0000  -0.0000  -0.0000  -0.0000  -0.0000  -0.0000
    -0.0000  -0.0000  -0.0000  -0.0000  -0.0000  -0.0000  -0.0000  -0.0000
    -0.0000  -0.0000  -0.0000  -0.0000

          k = 0.1667 0.4811 0.0000 (  5406 PWs)   bands (ev):

   -51.4653 -51.4653 -27.8985 -27.8984 -27.6669 -27.6668 -27.6359 -27.6357
    -9.1020  -8.8270  -8.6095  -8.5599  -2.0440  -1.8127  -1.4493  -1.2720
    -0.4287  -0.3391   0.1065   0.5367   0.8033   1.1430   1.5075   2.0479
     3.0899   3.2358   5.9561   6.1792   6.6598   6.8318   7.1359   7.4305
     7.9512   8.2767  10.0044  10.8660  11.5026  11.6001  12.0677  12.2853
    12.5277  12.8362  13.3467  13.7191  13.7786  14.2051  14.8357  15.0517
    15.4634  15.6163  16.1114  16.3575  16.5011  16.7148  17.1644  17.4846
    17.5719  18.2587  18.6088  18.8691

     occupation numbers 
     1.0000   1.0000   1.0000   1.0000   1.0000   1.0000   1.0000   1.0000
     1.0000   1.0000   1.0000   1.0000   1.0000   1.0000   1.0000   1.0000
     1.0000   1.0000   1.0000   1.0000   1.0000   1.0000   1.0000   1.0000
     0.6502   0.2193  -0.0000  -0.0000  -0.0000  -0.0000  -0.0000  -0.0000
    -0.0000  -0.0000  -0.0000  -0.0000  -0.0000  -0.0000  -0.0000  -0.0000
    -0.0000  -0.0000  -0.0000  -0.0000  -0.0000  -0.0000  -0.0000  -0.0000
    -0.0000  -0.0000  -0.0000  -0.0000  -0.0000  -0.0000  -0.0000  -0.0000
    -0.0000  -0.0000  -0.0000  -0.0000

          k = 0.1667 0.5774 0.0000 (  5414 PWs)   bands (ev):

   -51.4627 -51.4627 -27.9177 -27.9175 -27.6788 -27.6786 -27.6301 -27.6299
    -8.9581  -8.7660  -8.5464  -8.5249  -2.0356  -1.9729  -1.5844  -1.4253
    -0.4740  -0.4295   0.1755   0.5454   0.7357   1.1625   1.3359   1.9435
     3.2489   3.4225   5.9563   6.0232   6.8665   7.0415   7.4259   7.5186
     7.7578   8.2524   9.5929  10.7108  11.4208  12.0365  12.3488  12.4449
    12.4544  12.9693  13.0209  13.4656  13.7985  14.4918  14.5430  14.9882
    15.2724  15.5058  16.2768  16.7300  16.8319  17.0102  17.1859  17.3362
    17.5983  18.3086  18.6692  19.0339

     occupation numbers 
     1.0000   1.0000   1.0000   1.0000   1.0000   1.0000   1.0000   1.0000
     1.0000   1.0000   1.0000   1.0000   1.0000   1.0000   1.0000   1.0000
     1.0000   1.0000   1.0000   1.0000   1.0000   1.0000   1.0000   1.0000
     0.1873  -0.0289  -0.0000  -0.0000  -0.0000  -0.0000  -0.0000  -0.0000
    -0.0000  -0.0000  -0.0000  -0.0000  -0.0000  -0.0000  -0.0000  -0.0000
    -0.0000  -0.0000  -0.0000  -0.0000  -0.0000  -0.0000  -0.0000  -0.0000
    -0.0000  -0.0000  -0.0000  -0.0000  -0.0000  -0.0000  -0.0000  -0.0000
    -0.0000  -0.0000  -0.0000  -0.0000

          k = 0.2500 0.4330 0.0000 (  5388 PWs)   bands (ev):

   -51.4653 -51.4653 -27.8728 -27.8726 -27.6936 -27.6936 -27.6359 -27.6357
    -9.1103  -8.8232  -8.6057  -8.5544  -1.9276  -1.6103  -1.3870  -1.3396
    -0.4392  -0.1545   0.0301   0.5432   0.5620   0.6341   1.6651   1.9750
     3.1317   3.1949   5.8427   6.1205   6.6654   6.8053   7.0023   7.3705
     8.2751   8.3686  10.5913  10.7070  11.5151  11.5170  12.0180  12.4667
    12.8225  13.2176  13.5724  14.0130  14.1893  14.2180  14.9551  15.1579
    15.2428  15.5805  15.6971  15.7591  15.8743  16.8107  16.9734  17.3237
    17.6192  18.0115  18.0897  18.7036

     occupation numbers 
     1.0000   1.0000   1.0000   1.0000   1.0000   1.0000   1.0000   1.0000
     1.0000   1.0000   1.0000   1.0000   1.0000   1.0000   1.0000   1.0000
     1.0000   1.0000   1.0000   1.0000   1.0000   1.0000   1.0000   1.0000
     0.5232   0.3306  -0.0000  -0.0000  -0.0000  -0.0000  -0.0000  -0.0000
    -0.0000  -0.0000  -0.0000  -0.0000  -0.0000  -0.0000  -0.0000  -0.0000
    -0.0000  -0.0000  -0.0000  -0.0000  -0.0000  -0.0000  -0.0000  -0.0000
    -0.0000  -0.0000  -0.0000  -0.0000  -0.0000  -0.0000  -0.0000  -0.0000
    -0.0000  -0.0000  -0.0000  -0.0000

          k = 0.2500 0.5292 0.0000 (  5370 PWs)   bands (ev):

   -51.4612 -51.4612 -27.8789 -27.8788 -27.7370 -27.7370 -27.6268 -27.6267
    -8.8871  -8.7283  -8.5015  -8.4917  -1.9059  -1.8135  -1.5345  -1.3674
    -0.5604  -0.2067  -0.0948   0.2712   0.4265   0.7457   1.4053   1.7008
     3.4630   3.5287   5.6510   5.7100   6.8940   6.9660   7.3498   7.6426
     8.3315   8.5173  10.0583  10.6845  11.1483  11.8355  12.1297  13.0804
    13.2634  13.4020  13.5951  14.1241  14.3482  14.6086  14.8161  15.1813
    15.2590  15.6726  15.9229  16.0582  16.1970  16.4234  16.8450  16.9091
    17.2647  17.6318  17.8847  18.7032

     occupation numbers 
     1.0000   1.0000   1.0000   1.0000   1.0000   1.0000   1.0000   1.0000
     1.0000   1.0000   1.0000   1.0000   1.0000   1.0000   1.0000   1.0000
     1.0000   1.0000   1.0000   1.0000   1.0000   1.0000   1.0000   1.0000
    -0.0353  -0.0306  -0.0000  -0.0000  -0.0000  -0.0000  -0.0000  -0.0000
    -0.0000  -0.0000  -0.0000  -0.0000  -0.0000  -0.0000  -0.0000  -0.0000
    -0.0000  -0.0000  -0.0000  -0.0000  -0.0000  -0.0000  -0.0000  -0.0000
    -0.0000  -0.0000  -0.0000  -0.0000  -0.0000  -0.0000  -0.0000  -0.0000
    -0.0000  -0.0000  -0.0000  -0.0000

          k = 0.3333 0.5774 0.0000 (  5394 PWs)   bands (ev):

   -51.4597 -51.4597 -27.8497 -27.8497 -27.7849 -27.7849 -27.6235 -27.6234
    -8.7551  -8.7536  -8.4573  -8.4573  -1.9361  -1.9358  -1.3205  -0.8684
    -0.7741  -0.7736  -0.0327  -0.0311   0.3882   0.8978   1.3942   1.3966
     3.7234   3.7235   5.3738   5.3856   6.9149   6.9162   7.6868   7.6884
     8.6144   8.6155  10.0645  10.8061  10.8091  11.5363  12.2153  13.6977
    13.6985  14.1045  14.1053  14.2744  14.5030  14.5033  14.7061  15.2374
    15.2382  15.6602  15.7080  15.7641  16.3630  16.3645  16.6334  16.6339
    16.6386  17.3185  18.1310  18.7211

     occupation numbers 
     1.0000   1.0000   1.0000   1.0000   1.0000   1.0000   1.0000   1.0000
     1.0000   1.0000   1.0000   1.0000   1.0000   1.0000   1.0000   1.0000
     1.0000   1.0000   1.0000   1.0000   1.0000   1.0000   1.0000   1.0000
    -0.0048  -0.0048  -0.0000  -0.0000  -0.0000  -0.0000  -0.0000  -0.0000
    -0.0000  -0.0000  -0.0000  -0.0000  -0.0000  -0.0000  -0.0000  -0.0000
    -0.0000  -0.0000  -0.0000  -0.0000  -0.0000  -0.0000  -0.0000  -0.0000
    -0.0000  -0.0000  -0.0000  -0.0000  -0.0000  -0.0000  -0.0000  -0.0000
    -0.0000  -0.0000  -0.0000  -0.0000

          k =-0.0833 0.0481 0.0000 (  5423 PWs)   bands (ev):

   -51.5065 -51.5065 -27.7276 -27.7271 -27.5398 -27.5398 -27.5158 -27.5157
   -10.6789 -10.2554  -9.2973  -8.8662  -2.5489  -1.5517   0.4673   0.5406
     0.8091   0.8336   0.8769   1.5305   1.6984   1.7548   2.0122   2.6722
     3.7764   4.4043   6.1009   6.1337   6.1948   6.2549   6.3812   6.4208
     6.4551   6.5749   8.8609   9.0149   9.2413   9.6217  11.1344  11.6388
    12.0952  13.0324  13.2802  13.5098  13.7833  13.9720  14.5354  14.7519
    15.2871  15.3374  15.8113  16.2879  16.2941  16.5602  17.5732  18.0617
    18.2838  18.7874  18.7944  19.0162

     occupation numbers 
     1.0000   1.0000   1.0000   1.0000   1.0000   1.0000   1.0000   1.0000
     1.0000   1.0000   1.0000   1.0000   1.0000   1.0000   1.0000   1.0000
     1.0000   1.0000   1.0000   1.0000   1.0000   1.0000   1.0000   1.0179
    -0.0023  -0.0000  -0.0000  -0.0000  -0.0000  -0.0000  -0.0000  -0.0000
    -0.0000  -0.0000  -0.0000  -0.0000  -0.0000  -0.0000  -0.0000  -0.0000
    -0.0000  -0.0000  -0.0000  -0.0000  -0.0000  -0.0000  -0.0000  -0.0000
    -0.0000  -0.0000  -0.0000  -0.0000  -0.0000  -0.0000  -0.0000  -0.0000
    -0.0000  -0.0000  -0.0000  -0.0000

          k = 0.0833 0.0481 0.0000 (  5423 PWs)   bands (ev):

   -51.5065 -51.5065 -27.7276 -27.7271 -27.5399 -27.5397 -27.5158 -27.5156
   -10.6789 -10.2554  -9.2973  -8.8662  -2.5489  -1.5517   0.4672   0.5403
     0.8090   0.8341   0.8773   1.5312   1.6976   1.7543   2.0118   2.6727
     3.7764   4.4053   6.1004   6.1315   6.1935   6.2545   6.3826   6.4221
     6.4561   6.5750   8.8609   9.0148   9.2414   9.6216  11.1344  11.6385
    12.0956  13.0316  13.2803  13.5105  13.7840  13.9714  14.5344  14.7516
    15.2875  15.3386  15.8125  16.2867  16.2934  16.5606  17.5734  18.0579
    18.2845  18.7892  18.7931  19.0193

     occupation numbers 
     1.0000   1.0000   1.0000   1.0000   1.0000   1.0000   1.0000   1.0000
     1.0000   1.0000   1.0000   1.0000   1.0000   1.0000   1.0000   1.0000
     1.0000   1.0000   1.0000   1.0000   1.0000   1.0000   1.0000   1.0179
    -0.0023  -0.0000  -0.0000  -0.0000  -0.0000  -0.0000  -0.0000  -0.0000
    -0.0000  -0.0000  -0.0000  -0.0000  -0.0000  -0.0000  -0.0000  -0.0000
    -0.0000  -0.0000  -0.0000  -0.0000  -0.0000  -0.0000  -0.0000  -0.0000
    -0.0000  -0.0000  -0.0000  -0.0000  -0.0000  -0.0000  -0.0000  -0.0000
    -0.0000  -0.0000  -0.0000  -0.0000

          k =-0.1667 0.0962 0.0000 (  5419 PWs)   bands (ev):

   -51.4985 -51.4985 -27.7097 -27.7093 -27.6233 -27.6233 -27.5343 -27.5342
   -10.4144  -9.9935  -9.1884  -8.8112  -2.2864  -1.2967  -0.1263   0.0226
     0.3188   0.9298   0.9967   1.1410   1.3671   1.4092   1.9686   2.6860
     3.4982   3.7975   5.8790   6.0079   6.0928   6.1866   6.2805   6.7471
     6.7806   7.0215   9.3562   9.7435  10.1997  10.4163  11.4983  12.1136
    12.4255  12.8031  13.2455  13.6376  13.6774  14.4660  14.4868  14.7898
    15.0132  15.3523  15.4742  16.2559  16.3632  16.4745  16.9619  17.5258
    17.7024  18.6496  18.6753  19.1802

     occupation numbers 
     1.0000   1.0000   1.0000   1.0000   1.0000   1.0000   1.0000   1.0000
     1.0000   1.0000   1.0000   1.0000   1.0000   1.0000   1.0000   1.0000
     1.0000   1.0000   1.0000   1.0000   1.0000   1.0000   1.0000   1.0201
    -0.0342  -0.0016  -0.0000  -0.0000  -0.0000  -0.0000  -0.0000  -0.0000
    -0.0000  -0.0000  -0.0000  -0.0000  -0.0000  -0.0000  -0.0000  -0.0000
    -0.0000  -0.0000  -0.0000  -0.0000  -0.0000  -0.0000  -0.0000  -0.0000
    -0.0000  -0.0000  -0.0000  -0.0000  -0.0000  -0.0000  -0.0000  -0.0000
    -0.0000  -0.0000  -0.0000  -0.0000

          k = 0.1667 0.0962 0.0000 (  5419 PWs)   bands (ev):

   -51.4985 -51.4985 -27.7097 -27.7093 -27.6234 -27.6231 -27.5343 -27.5341
   -10.4145  -9.9935  -9.1884  -8.8111  -2.2865  -1.2966  -0.1263   0.0223
     0.3194   0.9301   0.9968   1.1415   1.3664   1.4086   1.9670   2.6872
     3.4981   3.7992   5.8785   6.0068   6.0915   6.1856   6.2808   6.7481
     6.7812   7.0222   9.3561   9.7435  10.2000  10.4162  11.4981  12.1122
    12.4265  12.8041  13.2452  13.6377  13.6757  14.4667  14.4873  14.7889
    15.0134  15.3536  15.4748  16.2563  16.3626  16.4754  16.9590  17.5242
    17.7043  18.6505  18.6743  19.1797

     occupation numbers 
     1.0000   1.0000   1.0000   1.0000   1.0000   1.0000   1.0000   1.0000
     1.0000   1.0000   1.0000   1.0000   1.0000   1.0000   1.0000   1.0000
     1.0000   1.0000   1.0000   1.0000   1.0000   1.0000   1.0000   1.0203
    -0.0342  -0.0016  -0.0000  -0.0000  -0.0000  -0.0000  -0.0000  -0.0000
    -0.0000  -0.0000  -0.0000  -0.0000  -0.0000  -0.0000  -0.0000  -0.0000
    -0.0000  -0.0000  -0.0000  -0.0000  -0.0000  -0.0000  -0.0000  -0.0000
    -0.0000  -0.0000  -0.0000  -0.0000  -0.0000  -0.0000  -0.0000  -0.0000
    -0.0000  -0.0000  -0.0000  -0.0000

          k =-0.2500 0.1443 0.0000 (  5403 PWs)   bands (ev):

   -51.4875 -51.4874 -27.7355 -27.7354 -27.6851 -27.6848 -27.5594 -27.5593
   -10.0266  -9.6183  -9.0267  -8.7352  -2.0517  -1.2125  -0.6606  -0.4305
    -0.1742   0.3120   0.8038   0.9797   1.4622   1.5417   1.6713   2.4980
     3.0051   3.2644   5.8071   5.8825   6.1477   6.2411   6.4764   7.1463
     7.2475   7.5554   9.9062  10.2347  10.8551  11.4284  11.7579  12.0616
    12.1156  12.7417  12.8821  13.8024  14.0777  14.7576  14.8668  15.1565
    15.3566  15.4619  15.8759  16.1756  16.3891  16.6311  16.7604  16.9497
    17.1402  18.1042  18.4280  19.2688

     occupation numbers 
     1.0000   1.0000   1.0000   1.0000   1.0000   1.0000   1.0000   1.0000
     1.0000   1.0000   1.0000   1.0000   1.0000   1.0000   1.0000   1.0000
     1.0000   1.0000   1.0000   1.0000   1.0000   1.0000   1.0000   1.0022
     0.8659   0.1524  -0.0000  -0.0000  -0.0000  -0.0000  -0.0000  -0.0000
    -0.0000  -0.0000  -0.0000  -0.0000  -0.0000  -0.0000  -0.0000  -0.0000
    -0.0000  -0.0000  -0.0000  -0.0000  -0.0000  -0.0000  -0.0000  -0.0000
    -0.0000  -0.0000  -0.0000  -0.0000  -0.0000  -0.0000  -0.0000  -0.0000
    -0.0000  -0.0000  -0.0000  -0.0000

          k = 0.2500 0.1443 0.0000 (  5403 PWs)   bands (ev):

   -51.4874 -51.4874 -27.7356 -27.7353 -27.6851 -27.6848 -27.5594 -27.5592
   -10.0268  -9.6183  -9.0267  -8.7350  -2.0517  -1.2127  -0.6591  -0.4313
    -0.1743   0.3119   0.8036   0.9796   1.4618   1.5417   1.6694   2.5001
     3.0057   3.2651   5.8069   5.8820   6.1478   6.2398   6.4756   7.1469
     7.2476   7.5559   9.9060  10.2348  10.8555  11.4287  11.7570  12.0606
    12.1149  12.7436  12.8815  13.8013  14.0770  14.7573  14.8673  15.1559
    15.3574  15.4629  15.8756  16.1780  16.3896  16.6308  16.7591  16.9495
    17.1400  18.1049  18.4289  19.2690

     occupation numbers 
     1.0000   1.0000   1.0000   1.0000   1.0000   1.0000   1.0000   1.0000
     1.0000   1.0000   1.0000   1.0000   1.0000   1.0000   1.0000   1.0000
     1.0000   1.0000   1.0000   1.0000   1.0000   1.0000   1.0000   1.0022
     0.8647   0.1508  -0.0000  -0.0000  -0.0000  -0.0000  -0.0000  -0.0000
    -0.0000  -0.0000  -0.0000  -0.0000  -0.0000  -0.0000  -0.0000  -0.0000
    -0.0000  -0.0000  -0.0000  -0.0000  -0.0000  -0.0000  -0.0000  -0.0000
    -0.0000  -0.0000  -0.0000  -0.0000  -0.0000  -0.0000  -0.0000  -0.0000
    -0.0000  -0.0000  -0.0000  -0.0000

          k =-0.3333 0.1925 0.0000 (  5411 PWs)   bands (ev):

   -51.4764 -51.4764 -27.8454 -27.8453 -27.6605 -27.6603 -27.5843 -27.5842
    -9.5947  -9.2215  -8.8433  -8.6601  -2.0982  -1.6689  -1.0189  -0.6259
    -0.4010  -0.1425   0.4677   0.6387   1.3815   1.7454   1.9093   2.2734
     2.7294   2.9851   5.9315   6.0274   6.1300   6.4767   6.8829   7.4518
     7.5844   7.9842  10.2962  10.5643  10.6700  11.3107  11.4751  11.7898
    11.9389  12.9012  13.2645  14.0405  14.4674  14.5810  14.7879  15.0151
    15.4399  15.6094  16.2132  16.4457  16.6562  17.1021  17.4263  17.4680
    17.8690  17.9396  18.2547  18.2578

     occupation numbers 
     1.0000   1.0000   1.0000   1.0000   1.0000   1.0000   1.0000   1.0000
     1.0000   1.0000   1.0000   1.0000   1.0000   1.0000   1.0000   1.0000
     1.0000   1.0000   1.0000   1.0000   1.0000   1.0000   1.0000   1.0000
     1.0274   0.9041  -0.0000  -0.0000  -0.0000  -0.0000  -0.0000  -0.0000
    -0.0000  -0.0000  -0.0000  -0.0000  -0.0000  -0.0000  -0.0000  -0.0000
    -0.0000  -0.0000  -0.0000  -0.0000  -0.0000  -0.0000  -0.0000  -0.0000
    -0.0000  -0.0000  -0.0000  -0.0000  -0.0000  -0.0000  -0.0000  -0.0000
    -0.0000  -0.0000  -0.0000  -0.0000

          k = 0.3333 0.1925 0.0000 (  5411 PWs)   bands (ev):

   -51.4764 -51.4764 -27.8455 -27.8452 -27.6605 -27.6603 -27.5844 -27.5842
    -9.5952  -9.2214  -8.8433  -8.6597  -2.0981  -1.6692  -1.0167  -0.6266
    -0.4014  -0.1438   0.4675   0.6385   1.3800   1.7450   1.9093   2.2761
     2.7304   2.9850   5.9313   6.0273   6.1301   6.4756   6.8824   7.4518
     7.5845   7.9846  10.2964  10.5645  10.6699  11.3086  11.4755  11.7902
    11.9385  12.9009  13.2647  14.0402  14.4686  14.5805  14.7871  15.0151
    15.4408  15.6092  16.2141  16.4452  16.6584  17.1027  17.4262  17.4680
    17.8696  17.9380  18.2551  18.2582

     occupation numbers 
     1.0000   1.0000   1.0000   1.0000   1.0000   1.0000   1.0000   1.0000
     1.0000   1.0000   1.0000   1.0000   1.0000   1.0000   1.0000   1.0000
     1.0000   1.0000   1.0000   1.0000   1.0000   1.0000   1.0000   1.0000
     1.0276   0.9043  -0.0000  -0.0000  -0.0000  -0.0000  -0.0000  -0.0000
    -0.0000  -0.0000  -0.0000  -0.0000  -0.0000  -0.0000  -0.0000  -0.0000
    -0.0000  -0.0000  -0.0000  -0.0000  -0.0000  -0.0000  -0.0000  -0.0000
    -0.0000  -0.0000  -0.0000  -0.0000  -0.0000  -0.0000  -0.0000  -0.0000
    -0.0000  -0.0000  -0.0000  -0.0000

          k =-0.4167 0.2406 0.0000 (  5401 PWs)   bands (ev):

   -51.4683 -51.4682 -27.9246 -27.9244 -27.6424 -27.6422 -27.6025 -27.6024
    -9.2299  -8.9304  -8.6862  -8.6039  -2.2922  -2.1069  -1.3575  -0.8928
    -0.4734  -0.3522   0.2422   0.4153   1.2071   1.9319   2.1641   2.1668
     2.8014   3.0564   6.1166   6.2251   6.3962   6.6829   7.0764   7.6155
     7.7582   8.2378   9.6562  10.2153  10.9588  11.0790  11.3351  11.7948
    12.2641  12.8751  13.4821  13.7735  13.7857  14.3291  14.7109  14.7685
    15.1705  15.4720  16.3065  16.6983  17.0813  17.2474  18.1271  18.2398
    18.4261  18.8945  18.9021  19.3188

     occupation numbers 
     1.0000   1.0000   1.0000   1.0000   1.0000   1.0000   1.0000   1.0000
     1.0000   1.0000   1.0000   1.0000   1.0000   1.0000   1.0000   1.0000
     1.0000   1.0000   1.0000   1.0000   1.0000   1.0000   1.0000   1.0000
     1.0354   0.7445  -0.0000  -0.0000  -0.0000  -0.0000  -0.0000  -0.0000
    -0.0000  -0.0000  -0.0000  -0.0000  -0.0000  -0.0000  -0.0000  -0.0000
    -0.0000  -0.0000  -0.0000  -0.0000  -0.0000  -0.0000  -0.0000  -0.0000
    -0.0000  -0.0000  -0.0000  -0.0000  -0.0000  -0.0000  -0.0000  -0.0000
    -0.0000  -0.0000  -0.0000  -0.0000

          k = 0.4167 0.2406 0.0000 (  5401 PWs)   bands (ev):

   -51.4683 -51.4683 -27.9247 -27.9243 -27.6424 -27.6422 -27.6026 -27.6024
    -9.2309  -8.9299  -8.6862  -8.6033  -2.2917  -2.1072  -1.3560  -0.8928
    -0.4731  -0.3548   0.2420   0.4151   1.2058   1.9315   2.1639   2.1697
     2.8025   3.0565   6.1166   6.2252   6.3960   6.6822   7.0766   7.6144
     7.7583   8.2381   9.6544  10.2155  10.9594  11.0787  11.3356  11.7941
    12.2645  12.8746  13.4822  13.7730  13.7859  14.3270  14.7154  14.7690
    15.1680  15.4714  16.3082  16.6973  17.0835  17.2474  18.1279  18.2405
    18.4259  18.8936  18.9035  19.3172

     occupation numbers 
     1.0000   1.0000   1.0000   1.0000   1.0000   1.0000   1.0000   1.0000
     1.0000   1.0000   1.0000   1.0000   1.0000   1.0000   1.0000   1.0000
     1.0000   1.0000   1.0000   1.0000   1.0000   1.0000   1.0000   1.0000
     1.0354   0.7443  -0.0000  -0.0000  -0.0000  -0.0000  -0.0000  -0.0000
    -0.0000  -0.0000  -0.0000  -0.0000  -0.0000  -0.0000  -0.0000  -0.0000
    -0.0000  -0.0000  -0.0000  -0.0000  -0.0000  -0.0000  -0.0000  -0.0000
    -0.0000  -0.0000  -0.0000  -0.0000  -0.0000  -0.0000  -0.0000  -0.0000
    -0.0000  -0.0000  -0.0000  -0.0000

          k = 0.5000-0.2887 0.0000 (  5412 PWs)   bands (ev):

   -51.4653 -51.4653 -27.9533 -27.9532 -27.6358 -27.6356 -27.6092 -27.6091
    -9.0730  -8.8435  -8.6203  -8.5758  -2.3698  -2.2891  -1.4882  -1.0178
    -0.5298  -0.4191   0.1641   0.3381   1.1505   1.9921   2.1414   2.2516
     2.9236   3.1510   6.2268   6.2913   6.6954   6.7186   7.0736   7.6647
     7.8073   8.3182   9.1647  10.0342  10.7169  11.2754  11.4612  11.9998
    12.5675  12.7242  13.3686  13.4352  13.8599  14.3082  14.4582  14.7164
    14.8066  14.9519  16.2869  16.4656  17.6773  17.7750  18.0245  18.5769
    18.9327  19.3763  19.4730  19.9260

     occupation numbers 
     1.0000   1.0000   1.0000   1.0000   1.0000   1.0000   1.0000   1.0000
     1.0000   1.0000   1.0000   1.0000   1.0000   1.0000   1.0000   1.0000
     1.0000   1.0000   1.0000   1.0000   1.0000   1.0000   1.0000   1.0000
     0.9880   0.4630  -0.0000  -0.0000  -0.0000  -0.0000  -0.0000  -0.0000
    -0.0000  -0.0000  -0.0000  -0.0000  -0.0000  -0.0000  -0.0000  -0.0000
    -0.0000  -0.0000  -0.0000  -0.0000  -0.0000  -0.0000  -0.0000  -0.0000
    -0.0000  -0.0000  -0.0000  -0.0000  -0.0000  -0.0000  -0.0000  -0.0000
    -0.0000  -0.0000  -0.0000  -0.0000

          k =-0.5000-0.2887 0.0000 (  5412 PWs)   bands (ev):

   -51.4653 -51.4653 -27.9534 -27.9530 -27.6358 -27.6356 -27.6092 -27.6090
    -9.0747  -8.8423  -8.6202  -8.5752  -2.3688  -2.2898  -1.4869  -1.0178
    -0.5290  -0.4222   0.1640   0.3380   1.1493   1.9917   2.1440   2.2516
     2.9245   3.1514   6.2268   6.2914   6.6945   6.7187   7.0743   7.6631
     7.8073   8.3184   9.1618  10.0355  10.7166  11.2741  11.4630  12.0002
    12.5676  12.7255  13.3664  13.4348  13.8590  14.3052  14.4588  14.7212
    14.8082  14.9511  16.2867  16.4646  17.6775  17.7764  18.0277  18.5762
    18.9323  19.3772  19.4697  19.9276

     occupation numbers 
     1.0000   1.0000   1.0000   1.0000   1.0000   1.0000   1.0000   1.0000
     1.0000   1.0000   1.0000   1.0000   1.0000   1.0000   1.0000   1.0000
     1.0000   1.0000   1.0000   1.0000   1.0000   1.0000   1.0000   1.0000
     0.9871   0.4617  -0.0000  -0.0000  -0.0000  -0.0000  -0.0000  -0.0000
    -0.0000  -0.0000  -0.0000  -0.0000  -0.0000  -0.0000  -0.0000  -0.0000
    -0.0000  -0.0000  -0.0000  -0.0000  -0.0000  -0.0000  -0.0000  -0.0000
    -0.0000  -0.0000  -0.0000  -0.0000  -0.0000  -0.0000  -0.0000  -0.0000
    -0.0000  -0.0000  -0.0000  -0.0000

          k =-0.0833 0.1443 0.0000 (  5395 PWs)   bands (ev):

   -51.5010 -51.5010 -27.7154 -27.7149 -27.5955 -27.5953 -27.5300 -27.5298
   -10.4998 -10.0776  -9.2236  -8.8286  -2.3633  -1.3673   0.0689   0.1609
     0.4798   0.9644   1.0231   1.1389   1.3839   1.3965   2.1270   2.7392
     3.6127   3.9430   5.9624   6.0410   6.0947   6.1949   6.2105   6.5569
     6.7048   6.9716   9.2320   9.5954   9.9301  10.1054  11.3860  12.2047
    12.4287  12.7902  13.2355  13.5041  13.8392  14.2551  14.4593  14.6117
    15.0590  15.0599  15.7585  15.9460  16.3835  16.6909  17.4397  17.5792
    18.0858  18.3682  18.7450  19.0756

     occupation numbers 
     1.0000   1.0000   1.0000   1.0000   1.0000   1.0000   1.0000   1.0000
     1.0000   1.0000   1.0000   1.0000   1.0000   1.0000   1.0000   1.0000
     1.0000   1.0000   1.0000   1.0000   1.0000   1.0000   1.0000   1.0290
    -0.0168  -0.0001  -0.0000  -0.0000  -0.0000  -0.0000  -0.0000  -0.0000
    -0.0000  -0.0000  -0.0000  -0.0000  -0.0000  -0.0000  -0.0000  -0.0000
    -0.0000  -0.0000  -0.0000  -0.0000  -0.0000  -0.0000  -0.0000  -0.0000
    -0.0000  -0.0000  -0.0000  -0.0000  -0.0000  -0.0000  -0.0000  -0.0000
    -0.0000  -0.0000  -0.0000  -0.0000

          k = 0.1667 0.0000 0.0000 (  5395 PWs)   bands (ev):

   -51.5010 -51.5010 -27.7154 -27.7149 -27.5954 -27.5953 -27.5300 -27.5299
   -10.4998 -10.0776  -9.2236  -8.8286  -2.3633  -1.3673   0.0688   0.1608
     0.4802   0.9639   1.0226   1.1398   1.3835   1.3963   2.1273   2.7393
     3.6128   3.9432   5.9623   6.0411   6.0933   6.1956   6.2115   6.5561
     6.7051   6.9716   9.2320   9.5955   9.9301  10.1054  11.3861  12.2049
    12.4287  12.7898  13.2350  13.5040  13.8393  14.2558  14.4594  14.6116
    15.0581  15.0609  15.7587  15.9468  16.3820  16.6909  17.4397  17.5801
    18.0860  18.3677  18.7439  19.0762

     occupation numbers 
     1.0000   1.0000   1.0000   1.0000   1.0000   1.0000   1.0000   1.0000
     1.0000   1.0000   1.0000   1.0000   1.0000   1.0000   1.0000   1.0000
     1.0000   1.0000   1.0000   1.0000   1.0000   1.0000   1.0000   1.0290
    -0.0168  -0.0001  -0.0000  -0.0000  -0.0000  -0.0000  -0.0000  -0.0000
    -0.0000  -0.0000  -0.0000  -0.0000  -0.0000  -0.0000  -0.0000  -0.0000
    -0.0000  -0.0000  -0.0000  -0.0000  -0.0000  -0.0000  -0.0000  -0.0000
    -0.0000  -0.0000  -0.0000  -0.0000  -0.0000  -0.0000  -0.0000  -0.0000
    -0.0000  -0.0000  -0.0000  -0.0000

          k =-0.0833 0.2406 0.0000 (  5411 PWs)   bands (ev):

   -51.4915 -51.4915 -27.6946 -27.6942 -27.6889 -27.6887 -27.5558 -27.5556
   -10.1730  -9.7581  -9.0875  -8.7623  -2.0977  -1.1442  -0.4638  -0.3069
     0.0402   0.5345   0.7568   0.9667   1.2649   1.3471   2.0659   2.6610
     3.2228   3.3719   5.7712   5.9543   6.0347   6.1584   6.2851   6.8237
     7.2490   7.5015   9.7254  10.1157  10.9708  11.2714  11.7971  11.9873
    12.1876  12.8696  13.1749  13.7223  13.8282  14.4099  14.5903  14.9304
    14.9726  15.2488  15.3743  16.0578  16.2260  16.9513  17.0028  17.2020
    17.7874  17.8471  18.4955  19.3205

     occupation numbers 
     1.0000   1.0000   1.0000   1.0000   1.0000   1.0000   1.0000   1.0000
     1.0000   1.0000   1.0000   1.0000   1.0000   1.0000   1.0000   1.0000
     1.0000   1.0000   1.0000   1.0000   1.0000   1.0000   1.0000   1.0161
     0.2529  -0.0029  -0.0000  -0.0000  -0.0000  -0.0000  -0.0000  -0.0000
    -0.0000  -0.0000  -0.0000  -0.0000  -0.0000  -0.0000  -0.0000  -0.0000
    -0.0000  -0.0000  -0.0000  -0.0000  -0.0000  -0.0000  -0.0000  -0.0000
    -0.0000  -0.0000  -0.0000  -0.0000  -0.0000  -0.0000  -0.0000  -0.0000
    -0.0000  -0.0000  -0.0000  -0.0000

          k =-0.1667 0.1925 0.0000 (  5411 PWs)   bands (ev):

   -51.4915 -51.4915 -27.6946 -27.6942 -27.6889 -27.6887 -27.5558 -27.5556
   -10.1730  -9.7581  -9.0875  -8.7623  -2.0977  -1.1442  -0.4640  -0.3068
     0.0400   0.5340   0.7573   0.9661   1.2655   1.3473   2.0668   2.6600
     3.2226   3.3716   5.7714   5.9545   6.0363   6.1574   6.2859   6.8230
     7.2485   7.5015   9.7255  10.1157  10.9706  11.2714  11.7972  11.9886
    12.1873  12.8686  13.1751  13.7221  13.8282  14.4107  14.5913  14.9294
    14.9724  15.2493  15.3733  16.0584  16.2268  16.9498  17.0044  17.1993
    17.7896  17.8469  18.4945  19.3208

     occupation numbers 
     1.0000   1.0000   1.0000   1.0000   1.0000   1.0000   1.0000   1.0000
     1.0000   1.0000   1.0000   1.0000   1.0000   1.0000   1.0000   1.0000
     1.0000   1.0000   1.0000   1.0000   1.0000   1.0000   1.0000   1.0160
     0.2534  -0.0027  -0.0000  -0.0000  -0.0000  -0.0000  -0.0000  -0.0000
    -0.0000  -0.0000  -0.0000  -0.0000  -0.0000  -0.0000  -0.0000  -0.0000
    -0.0000  -0.0000  -0.0000  -0.0000  -0.0000  -0.0000  -0.0000  -0.0000
    -0.0000  -0.0000  -0.0000  -0.0000  -0.0000  -0.0000  -0.0000  -0.0000
    -0.0000  -0.0000  -0.0000  -0.0000

          k = 0.2500 0.0481 0.0000 (  5411 PWs)   bands (ev):

   -51.4915 -51.4915 -27.6946 -27.6942 -27.6889 -27.6886 -27.5558 -27.5556
   -10.1731  -9.7581  -9.0875  -8.7622  -2.0977  -1.1443  -0.4638  -0.3072
     0.0404   0.5345   0.7562   0.9662   1.2652   1.3474   2.0661   2.6609
     3.2228   3.3725   5.7708   5.9539   6.0341   6.1591   6.2864   6.8226
     7.2493   7.5014   9.7254  10.1158  10.9707  11.2714  11.7970  11.9879
    12.1877  12.8688  13.1750  13.7222  13.8271  14.4101  14.5915  14.9305
    14.9731  15.2489  15.3744  16.0576  16.2255  16.9519  17.0032  17.2015
    17.7874  17.8469  18.4945  19.3213

     occupation numbers 
     1.0000   1.0000   1.0000   1.0000   1.0000   1.0000   1.0000   1.0000
     1.0000   1.0000   1.0000   1.0000   1.0000   1.0000   1.0000   1.0000
     1.0000   1.0000   1.0000   1.0000   1.0000   1.0000   1.0000   1.0161
     0.2530  -0.0034  -0.0000  -0.0000  -0.0000  -0.0000  -0.0000  -0.0000
    -0.0000  -0.0000  -0.0000  -0.0000  -0.0000  -0.0000  -0.0000  -0.0000
    -0.0000  -0.0000  -0.0000  -0.0000  -0.0000  -0.0000  -0.0000  -0.0000
    -0.0000  -0.0000  -0.0000  -0.0000  -0.0000  -0.0000  -0.0000  -0.0000
    -0.0000  -0.0000  -0.0000  -0.0000

          k =-0.1667-0.1925 0.0000 (  5411 PWs)   bands (ev):

   -51.4915 -51.4915 -27.6946 -27.6942 -27.6889 -27.6887 -27.5558 -27.5556
   -10.1731  -9.7581  -9.0875  -8.7622  -2.0977  -1.1442  -0.4632  -0.3074
     0.0403   0.5342   0.7569   0.9661   1.2651   1.3473   2.0648   2.6616
     3.2229   3.3730   5.7709   5.9549   6.0363   6.1561   6.2844   6.8243
     7.2486   7.5018   9.7254  10.1156  10.9711  11.2712  11.7971  11.9882
    12.1872  12.8678  13.1751  13.7201  13.8271  14.4112  14.5933  14.9322
    14.9726  15.2474  15.3741  16.0588  16.2254  16.9518  17.0043  17.1985
    17.7888  17.8477  18.4924  19.3246

     occupation numbers 
     1.0000   1.0000   1.0000   1.0000   1.0000   1.0000   1.0000   1.0000
     1.0000   1.0000   1.0000   1.0000   1.0000   1.0000   1.0000   1.0000
     1.0000   1.0000   1.0000   1.0000   1.0000   1.0000   1.0000   1.0162
     0.2527  -0.0037  -0.0000  -0.0000  -0.0000  -0.0000  -0.0000  -0.0000
    -0.0000  -0.0000  -0.0000  -0.0000  -0.0000  -0.0000  -0.0000  -0.0000
    -0.0000  -0.0000  -0.0000  -0.0000  -0.0000  -0.0000  -0.0000  -0.0000
    -0.0000  -0.0000  -0.0000  -0.0000  -0.0000  -0.0000  -0.0000  -0.0000
    -0.0000  -0.0000  -0.0000  -0.0000

          k = 0.2500-0.0481 0.0000 (  5411 PWs)   bands (ev):

   -51.4915 -51.4915 -27.6946 -27.6942 -27.6888 -27.6887 -27.5558 -27.5557
   -10.1730  -9.7581  -9.0874  -8.7623  -2.0977  -1.1443  -0.4641  -0.3070
     0.0402   0.5340   0.7571   0.9661   1.2654   1.3474   2.0670   2.6600
     3.2227   3.3719   5.7712   5.9539   6.0351   6.1588   6.2868   6.8223
     7.2491   7.5011   9.7255  10.1157  10.9705  11.2713  11.7972  11.9886
    12.1876  12.8682  13.1747  13.7218  13.8283  14.4105  14.5920  14.9288
    14.9735  15.2498  15.3730  16.0587  16.2261  16.9494  17.0041  17.2000
    17.7894  17.8467  18.4946  19.3212

     occupation numbers 
     1.0000   1.0000   1.0000   1.0000   1.0000   1.0000   1.0000   1.0000
     1.0000   1.0000   1.0000   1.0000   1.0000   1.0000   1.0000   1.0000
     1.0000   1.0000   1.0000   1.0000   1.0000   1.0000   1.0000   1.0160
     0.2532  -0.0029  -0.0000  -0.0000  -0.0000  -0.0000  -0.0000  -0.0000
    -0.0000  -0.0000  -0.0000  -0.0000  -0.0000  -0.0000  -0.0000  -0.0000
    -0.0000  -0.0000  -0.0000  -0.0000  -0.0000  -0.0000  -0.0000  -0.0000
    -0.0000  -0.0000  -0.0000  -0.0000  -0.0000  -0.0000  -0.0000  -0.0000
    -0.0000  -0.0000  -0.0000  -0.0000

          k =-0.0833 0.3368 0.0000 (  5405 PWs)   bands (ev):

   -51.4804 -51.4804 -27.7956 -27.7953 -27.6696 -27.6693 -27.5856 -27.5854
    -9.7610  -9.3688  -8.9121  -8.6848  -1.9973  -1.3812  -0.7917  -0.5643
    -0.3261  -0.0350   0.3705   0.6890   1.4071   1.5919   1.8073   2.4410
     2.8480   3.0121   5.7592   5.9600   6.1734   6.3634   6.6075   7.1352
     7.7304   7.8840  10.3236  10.5682  11.0280  11.4269  11.8922  11.9902
    12.2759  12.8602  13.1514  13.8855  13.9271  14.5332  14.6884  15.0025
    15.2704  15.4186  15.7366  16.0238  16.3952  16.6968  17.2978  17.4123
    17.8406  18.1959  18.4965  18.7169

     occupation numbers 
     1.0000   1.0000   1.0000   1.0000   1.0000   1.0000   1.0000   1.0000
     1.0000   1.0000   1.0000   1.0000   1.0000   1.0000   1.0000   1.0000
     1.0000   1.0000   1.0000   1.0000   1.0000   1.0000   1.0000   1.0009
     1.0310   0.8514  -0.0000  -0.0000  -0.0000  -0.0000  -0.0000  -0.0000
    -0.0000  -0.0000  -0.0000  -0.0000  -0.0000  -0.0000  -0.0000  -0.0000
    -0.0000  -0.0000  -0.0000  -0.0000  -0.0000  -0.0000  -0.0000  -0.0000
    -0.0000  -0.0000  -0.0000  -0.0000  -0.0000  -0.0000  -0.0000  -0.0000
    -0.0000  -0.0000  -0.0000  -0.0000

          k =-0.2500 0.2406 0.0000 (  5405 PWs)   bands (ev):

   -51.4804 -51.4804 -27.7955 -27.7953 -27.6696 -27.6693 -27.5856 -27.5855
    -9.7607  -9.3689  -8.9121  -8.6849  -1.9974  -1.3810  -0.7937  -0.5632
    -0.3253  -0.0354   0.3707   0.6889   1.4077   1.5917   1.8088   2.4385
     2.8473   3.0129   5.7592   5.9603   6.1739   6.3636   6.6086   7.1341
     7.7299   7.8839  10.3239  10.5679  11.0279  11.4279  11.8928  11.9905
    12.2769  12.8581  13.1523  13.8861  13.9253  14.5342  14.6888  15.0023
    15.2700  15.4176  15.7365  16.0239  16.3948  16.6987  17.2971  17.4118
    17.8399  18.1941  18.4976  18.7170

     occupation numbers 
     1.0000   1.0000   1.0000   1.0000   1.0000   1.0000   1.0000   1.0000
     1.0000   1.0000   1.0000   1.0000   1.0000   1.0000   1.0000   1.0000
     1.0000   1.0000   1.0000   1.0000   1.0000   1.0000   1.0000   1.0008
     1.0311   0.8497  -0.0000  -0.0000  -0.0000  -0.0000  -0.0000  -0.0000
    -0.0000  -0.0000  -0.0000  -0.0000  -0.0000  -0.0000  -0.0000  -0.0000
    -0.0000  -0.0000  -0.0000  -0.0000  -0.0000  -0.0000  -0.0000  -0.0000
    -0.0000  -0.0000  -0.0000  -0.0000  -0.0000  -0.0000  -0.0000  -0.0000
    -0.0000  -0.0000  -0.0000  -0.0000

          k = 0.3333 0.0962 0.0000 (  5405 PWs)   bands (ev):

   -51.4804 -51.4804 -27.7955 -27.7952 -27.6696 -27.6693 -27.5857 -27.5855
    -9.7610  -9.3689  -8.9121  -8.6847  -1.9973  -1.3813  -0.7917  -0.5645
    -0.3259  -0.0354   0.3704   0.6886   1.4072   1.5921   1.8076   2.4405
     2.8478   3.0132   5.7588   5.9599   6.1729   6.3644   6.6081   7.1343
     7.7304   7.8838  10.3236  10.5682  11.0282  11.4269  11.8926  11.9900
    12.2764  12.8587  13.1522  13.8856  13.9255  14.5337  14.6890  15.0023
    15.2709  15.4190  15.7368  16.0243  16.3952  16.6968  17.2974  17.4118
    17.8404  18.1957  18.4967  18.7176

     occupation numbers 
     1.0000   1.0000   1.0000   1.0000   1.0000   1.0000   1.0000   1.0000
     1.0000   1.0000   1.0000   1.0000   1.0000   1.0000   1.0000   1.0000
     1.0000   1.0000   1.0000   1.0000   1.0000   1.0000   1.0000   1.0009
     1.0310   0.8490  -0.0000  -0.0000  -0.0000  -0.0000  -0.0000  -0.0000
    -0.0000  -0.0000  -0.0000  -0.0000  -0.0000  -0.0000  -0.0000  -0.0000
    -0.0000  -0.0000  -0.0000  -0.0000  -0.0000  -0.0000  -0.0000  -0.0000
    -0.0000  -0.0000  -0.0000  -0.0000  -0.0000  -0.0000  -0.0000  -0.0000
    -0.0000  -0.0000  -0.0000  -0.0000

          k =-0.2500-0.2406 0.0000 (  5405 PWs)   bands (ev):

   -51.4804 -51.4804 -27.7955 -27.7953 -27.6696 -27.6693 -27.5856 -27.5855
    -9.7611  -9.3689  -8.9121  -8.6846  -1.9973  -1.3812  -0.7916  -0.5643
    -0.3258  -0.0360   0.3705   0.6888   1.4071   1.5915   1.8074   2.4411
     2.8483   3.0128   5.7588   5.9606   6.1743   6.3623   6.6078   7.1349
     7.7296   7.8840  10.3238  10.5681  11.0286  11.4266  11.8925  11.9901
    12.2760  12.8594  13.1514  13.8861  13.9237  14.5349  14.6887  15.0023
    15.2692  15.4195  15.7383  16.0244  16.3962  16.6983  17.2981  17.4107
    17.8393  18.1934  18.4978  18.7177

     occupation numbers 
     1.0000   1.0000   1.0000   1.0000   1.0000   1.0000   1.0000   1.0000
     1.0000   1.0000   1.0000   1.0000   1.0000   1.0000   1.0000   1.0000
     1.0000   1.0000   1.0000   1.0000   1.0000   1.0000   1.0000   1.0009
     1.0309   0.8498  -0.0000  -0.0000  -0.0000  -0.0000  -0.0000  -0.0000
    -0.0000  -0.0000  -0.0000  -0.0000  -0.0000  -0.0000  -0.0000  -0.0000
    -0.0000  -0.0000  -0.0000  -0.0000  -0.0000  -0.0000  -0.0000  -0.0000
    -0.0000  -0.0000  -0.0000  -0.0000  -0.0000  -0.0000  -0.0000  -0.0000
    -0.0000  -0.0000  -0.0000  -0.0000

          k = 0.3333-0.0962 0.0000 (  5405 PWs)   bands (ev):

   -51.4804 -51.4804 -27.7954 -27.7954 -27.6696 -27.6693 -27.5856 -27.5855
    -9.7608  -9.3689  -8.9121  -8.6849  -1.9973  -1.3811  -0.7938  -0.5634
    -0.3255  -0.0353   0.3711   0.6888   1.4073   1.5919   1.8088   2.4386
     2.8473   3.0131   5.7592   5.9599   6.1734   6.3646   6.6091   7.1337
     7.7305   7.8833  10.3238  10.5679  11.0281  11.4280  11.8926  11.9902
    12.2770  12.8577  13.1525  13.8859  13.9248  14.5350  14.6897  15.0021
    15.2700  15.4175  15.7362  16.0232  16.3957  16.6988  17.2972  17.4114
    17.8397  18.1939  18.4979  18.7178

     occupation numbers 
     1.0000   1.0000   1.0000   1.0000   1.0000   1.0000   1.0000   1.0000
     1.0000   1.0000   1.0000   1.0000   1.0000   1.0000   1.0000   1.0000
     1.0000   1.0000   1.0000   1.0000   1.0000   1.0000   1.0000   1.0008
     1.0311   0.8493  -0.0000  -0.0000  -0.0000  -0.0000  -0.0000  -0.0000
    -0.0000  -0.0000  -0.0000  -0.0000  -0.0000  -0.0000  -0.0000  -0.0000
    -0.0000  -0.0000  -0.0000  -0.0000  -0.0000  -0.0000  -0.0000  -0.0000
    -0.0000  -0.0000  -0.0000  -0.0000  -0.0000  -0.0000  -0.0000  -0.0000
    -0.0000  -0.0000  -0.0000  -0.0000

          k =-0.0833 0.4330 0.0000 (  5419 PWs)   bands (ev):

   -51.4708 -51.4708 -27.8859 -27.8857 -27.6482 -27.6480 -27.6114 -27.6112
    -9.3573  -9.0186  -8.7361  -8.6178  -2.1394  -1.8449  -1.2061  -0.8429
    -0.4185  -0.3070   0.2062   0.4986   1.3732   1.6003   1.7571   2.2364
     2.8281   3.0294   5.9826   6.1418   6.3976   6.5599   7.0105   7.3699
     7.9194   8.0746  10.2242  10.5842  10.9420  11.5317  11.5772  11.7076
    12.2032  13.0033  13.4094  13.5422  13.8900  14.4721  14.8340  14.9526
    15.3810  15.6577  16.2367  16.4265  16.7946  17.0048  17.2409  17.6306
    17.9856  18.3627  18.8644  19.0855

     occupation numbers 
     1.0000   1.0000   1.0000   1.0000   1.0000   1.0000   1.0000   1.0000
     1.0000   1.0000   1.0000   1.0000   1.0000   1.0000   1.0000   1.0000
     1.0000   1.0000   1.0000   1.0000   1.0000   1.0000   1.0000   1.0000
     1.0343   0.8124  -0.0000  -0.0000  -0.0000  -0.0000  -0.0000  -0.0000
    -0.0000  -0.0000  -0.0000  -0.0000  -0.0000  -0.0000  -0.0000  -0.0000
    -0.0000  -0.0000  -0.0000  -0.0000  -0.0000  -0.0000  -0.0000  -0.0000
    -0.0000  -0.0000  -0.0000  -0.0000  -0.0000  -0.0000  -0.0000  -0.0000
    -0.0000  -0.0000  -0.0000  -0.0000

          k =-0.3333 0.2887 0.0000 (  5419 PWs)   bands (ev):

   -51.4708 -51.4708 -27.8858 -27.8857 -27.6482 -27.6480 -27.6114 -27.6112
    -9.3568  -9.0189  -8.7361  -8.6181  -2.1397  -1.8449  -1.2076  -0.8424
    -0.4180  -0.3065   0.2062   0.4989   1.3744   1.6010   1.7568   2.2338
     2.8272   3.0303   5.9822   6.1421   6.3975   6.5609   7.0113   7.3689
     7.9198   8.0740  10.2254  10.5842  10.9420  11.5318  11.5782  11.7068
    12.2040  13.0036  13.4083  13.5429  13.8880  14.4712  14.8363  14.9513
    15.3816  15.6581  16.2377  16.4255  16.7936  17.0045  17.2406  17.6309
    17.9859  18.3621  18.8645  19.0859

     occupation numbers 
     1.0000   1.0000   1.0000   1.0000   1.0000   1.0000   1.0000   1.0000
     1.0000   1.0000   1.0000   1.0000   1.0000   1.0000   1.0000   1.0000
     1.0000   1.0000   1.0000   1.0000   1.0000   1.0000   1.0000   1.0000
     1.0344   0.8103  -0.0000  -0.0000  -0.0000  -0.0000  -0.0000  -0.0000
    -0.0000  -0.0000  -0.0000  -0.0000  -0.0000  -0.0000  -0.0000  -0.0000
    -0.0000  -0.0000  -0.0000  -0.0000  -0.0000  -0.0000  -0.0000  -0.0000
    -0.0000  -0.0000  -0.0000  -0.0000  -0.0000  -0.0000  -0.0000  -0.0000
    -0.0000  -0.0000  -0.0000  -0.0000

          k = 0.4167 0.1443 0.0000 (  5419 PWs)   bands (ev):

   -51.4708 -51.4708 -27.8859 -27.8856 -27.6482 -27.6480 -27.6114 -27.6112
    -9.3574  -9.0186  -8.7361  -8.6176  -2.1395  -1.8450  -1.2062  -0.8428
    -0.4187  -0.3074   0.2063   0.4982   1.3736   1.6005   1.7570   2.2359
     2.8279   3.0305   5.9823   6.1418   6.3974   6.5604   7.0108   7.3695
     7.9188   8.0748  10.2241  10.5843  10.9420  11.5320  11.5772  11.7072
    12.2035  13.0029  13.4088  13.5428  13.8896  14.4719  14.8347  14.9531
    15.3807  15.6576  16.2372  16.4270  16.7948  17.0044  17.2406  17.6310
    17.9854  18.3624  18.8632  19.0862

     occupation numbers 
     1.0000   1.0000   1.0000   1.0000   1.0000   1.0000   1.0000   1.0000
     1.0000   1.0000   1.0000   1.0000   1.0000   1.0000   1.0000   1.0000
     1.0000   1.0000   1.0000   1.0000   1.0000   1.0000   1.0000   1.0000
     1.0343   0.8098  -0.0000  -0.0000  -0.0000  -0.0000  -0.0000  -0.0000
    -0.0000  -0.0000  -0.0000  -0.0000  -0.0000  -0.0000  -0.0000  -0.0000
    -0.0000  -0.0000  -0.0000  -0.0000  -0.0000  -0.0000  -0.0000  -0.0000
[...]
    15.4637  15.6159  16.1124  16.3580  16.4986  16.7166  17.1637  17.4853
    17.5714  18.2592  18.6083  18.8693

     occupation numbers 
     1.0000   1.0000   1.0000   1.0000   1.0000   1.0000   1.0000   1.0000
     1.0000   1.0000   1.0000   1.0000   1.0000   1.0000   1.0000   1.0000
     1.0000   1.0000   1.0000   1.0000   1.0000   1.0000   1.0000   1.0000
     0.6527   0.2172  -0.0000  -0.0000  -0.0000  -0.0000  -0.0000  -0.0000
    -0.0000  -0.0000  -0.0000  -0.0000  -0.0000  -0.0000  -0.0000  -0.0000
    -0.0000  -0.0000  -0.0000  -0.0000  -0.0000  -0.0000  -0.0000  -0.0000
    -0.0000  -0.0000  -0.0000  -0.0000  -0.0000  -0.0000  -0.0000  -0.0000
    -0.0000  -0.0000  -0.0000  -0.0000

          k = 0.5000 0.0962 0.0000 (  5406 PWs)   bands (ev):

   -51.4653 -51.4653 -27.8986 -27.8983 -27.6670 -27.6668 -27.6359 -27.6357
    -9.1017  -8.8272  -8.6096  -8.5599  -2.0443  -1.8129  -1.4493  -1.2721
    -0.4286  -0.3389   0.1063   0.5359   0.8046   1.1427   1.5078   2.0471
     3.0896   3.2366   5.9557   6.1797   6.6601   6.8309   7.1346   7.4322
     7.9515   8.2767  10.0045  10.8670  11.5006  11.6003  12.0675  12.2858
    12.5287  12.8363  13.3475  13.7187  13.7775  14.2043  14.8365  15.0529
    15.4634  15.6157  16.1122  16.3560  16.5009  16.7163  17.1640  17.4853
    17.5715  18.2589  18.6081  18.8687

     occupation numbers 
     1.0000   1.0000   1.0000   1.0000   1.0000   1.0000   1.0000   1.0000
     1.0000   1.0000   1.0000   1.0000   1.0000   1.0000   1.0000   1.0000
     1.0000   1.0000   1.0000   1.0000   1.0000   1.0000   1.0000   1.0000
     0.6512   0.2174  -0.0000  -0.0000  -0.0000  -0.0000  -0.0000  -0.0000
    -0.0000  -0.0000  -0.0000  -0.0000  -0.0000  -0.0000  -0.0000  -0.0000
    -0.0000  -0.0000  -0.0000  -0.0000  -0.0000  -0.0000  -0.0000  -0.0000
    -0.0000  -0.0000  -0.0000  -0.0000  -0.0000  -0.0000  -0.0000  -0.0000
    -0.0000  -0.0000  -0.0000  -0.0000

          k =-0.3333-0.3849 0.0000 (  5406 PWs)   bands (ev):

   -51.4653 -51.4653 -27.8986 -27.8983 -27.6670 -27.6668 -27.6359 -27.6357
    -9.1021  -8.8270  -8.6095  -8.5598  -2.0440  -1.8127  -1.4494  -1.2719
    -0.4292  -0.3391   0.1065   0.5365   0.8037   1.1428   1.5082   2.0474
     3.0898   3.2363   5.9559   6.1794   6.6597   6.8320   7.1359   7.4306
     7.9511   8.2766  10.0043  10.8656  11.5030  11.6002  12.0681  12.2846
    12.5277  12.8366  13.3468  13.7175  13.7791  14.2049  14.8366  15.0536
    15.4634  15.6147  16.1127  16.3577  16.5006  16.7142  17.1646  17.4844
    17.5726  18.2589  18.6081  18.8691

     occupation numbers 
     1.0000   1.0000   1.0000   1.0000   1.0000   1.0000   1.0000   1.0000
     1.0000   1.0000   1.0000   1.0000   1.0000   1.0000   1.0000   1.0000
     1.0000   1.0000   1.0000   1.0000   1.0000   1.0000   1.0000   1.0000
     0.6506   0.2182  -0.0000  -0.0000  -0.0000  -0.0000  -0.0000  -0.0000
    -0.0000  -0.0000  -0.0000  -0.0000  -0.0000  -0.0000  -0.0000  -0.0000
    -0.0000  -0.0000  -0.0000  -0.0000  -0.0000  -0.0000  -0.0000  -0.0000
    -0.0000  -0.0000  -0.0000  -0.0000  -0.0000  -0.0000  -0.0000  -0.0000
    -0.0000  -0.0000  -0.0000  -0.0000

          k = 0.5000-0.0962 0.0000 (  5406 PWs)   bands (ev):

   -51.4653 -51.4653 -27.8985 -27.8984 -27.6669 -27.6669 -27.6359 -27.6357
    -9.1010  -8.8276  -8.6096  -8.5603  -2.0443  -1.8133  -1.4497  -1.2721
    -0.4262  -0.3409   0.1072   0.5370   0.8041   1.1425   1.5085   2.0455
     3.0891   3.2367   5.9555   6.1797   6.6601   6.8312   7.1363   7.4307
     7.9506   8.2777  10.0070  10.8658  11.5023  11.5999  12.0676  12.2852
    12.5280  12.8358  13.3467  13.7192  13.7784  14.2032  14.8366  15.0506
    15.4635  15.6175  16.1122  16.3568  16.4987  16.7171  17.1640  17.4852
    17.5717  18.2597  18.6087  18.8690

     occupation numbers 
     1.0000   1.0000   1.0000   1.0000   1.0000   1.0000   1.0000   1.0000
     1.0000   1.0000   1.0000   1.0000   1.0000   1.0000   1.0000   1.0000
     1.0000   1.0000   1.0000   1.0000   1.0000   1.0000   1.0000   1.0000
     0.6528   0.2171  -0.0000  -0.0000  -0.0000  -0.0000  -0.0000  -0.0000
    -0.0000  -0.0000  -0.0000  -0.0000  -0.0000  -0.0000  -0.0000  -0.0000
    -0.0000  -0.0000  -0.0000  -0.0000  -0.0000  -0.0000  -0.0000  -0.0000
    -0.0000  -0.0000  -0.0000  -0.0000  -0.0000  -0.0000  -0.0000  -0.0000
    -0.0000  -0.0000  -0.0000  -0.0000

          k =-0.4167 0.4330 0.0000 (  5414 PWs)   bands (ev):

   -51.4627 -51.4627 -27.9176 -27.9175 -27.6788 -27.6787 -27.6301 -27.6299
    -8.9567  -8.7671  -8.5465  -8.5251  -2.0352  -1.9740  -1.5847  -1.4253
    -0.4717  -0.4315   0.1763   0.5464   0.7357   1.1623   1.3368   1.9411
     3.2482   3.4231   5.9560   6.0236   6.8666   7.0405   7.4278   7.5182
     7.7559   8.2540   9.5963  10.7084  11.4222  12.0366  12.3500  12.4432
    12.4537  12.9700  13.0199  13.4644  13.7992  14.4925  14.5434  14.9878
    15.2713  15.5051  16.2774  16.7300  16.8327  17.0124  17.1856  17.3338
    17.5993  18.3084  18.6698  19.0348

     occupation numbers 
     1.0000   1.0000   1.0000   1.0000   1.0000   1.0000   1.0000   1.0000
     1.0000   1.0000   1.0000   1.0000   1.0000   1.0000   1.0000   1.0000
     1.0000   1.0000   1.0000   1.0000   1.0000   1.0000   1.0000   1.0000
     0.1890  -0.0291  -0.0000  -0.0000  -0.0000  -0.0000  -0.0000  -0.0000
    -0.0000  -0.0000  -0.0000  -0.0000  -0.0000  -0.0000  -0.0000  -0.0000
    -0.0000  -0.0000  -0.0000  -0.0000  -0.0000  -0.0000  -0.0000  -0.0000
    -0.0000  -0.0000  -0.0000  -0.0000  -0.0000  -0.0000  -0.0000  -0.0000
    -0.0000  -0.0000  -0.0000  -0.0000

          k = 0.5833 0.1443 0.0000 (  5414 PWs)   bands (ev):

   -51.4627 -51.4627 -27.9177 -27.9174 -27.6788 -27.6786 -27.6301 -27.6300
    -8.9583  -8.7658  -8.5465  -8.5248  -2.0358  -1.9729  -1.5845  -1.4254
    -0.4745  -0.4293   0.1757   0.5450   0.7359   1.1623   1.3365   1.9432
     3.2488   3.4229   5.9563   6.0234   6.8667   7.0411   7.4263   7.5186
     7.7573   8.2526   9.5930  10.7097  11.4215  12.0364  12.3494  12.4439
    12.4543  12.9696  13.0206  13.4655  13.7988  14.4911  14.5424  14.9893
    15.2741  15.5064  16.2764  16.7287  16.8313  17.0101  17.1864  17.3362
    17.5995  18.3087  18.6689  19.0355

     occupation numbers 
     1.0000   1.0000   1.0000   1.0000   1.0000   1.0000   1.0000   1.0000
     1.0000   1.0000   1.0000   1.0000   1.0000   1.0000   1.0000   1.0000
     1.0000   1.0000   1.0000   1.0000   1.0000   1.0000   1.0000   1.0000
     0.1876  -0.0290  -0.0000  -0.0000  -0.0000  -0.0000  -0.0000  -0.0000
    -0.0000  -0.0000  -0.0000  -0.0000  -0.0000  -0.0000  -0.0000  -0.0000
    -0.0000  -0.0000  -0.0000  -0.0000  -0.0000  -0.0000  -0.0000  -0.0000
    -0.0000  -0.0000  -0.0000  -0.0000  -0.0000  -0.0000  -0.0000  -0.0000
    -0.0000  -0.0000  -0.0000  -0.0000

          k =-0.2500 0.4330 0.0000 (  5388 PWs)   bands (ev):

   -51.4653 -51.4653 -27.8728 -27.8726 -27.6937 -27.6935 -27.6359 -27.6357
    -9.1096  -8.8236  -8.6058  -8.5547  -1.9278  -1.6109  -1.3869  -1.3396
    -0.4367  -0.1556   0.0295   0.5444   0.5618   0.6337   1.6667   1.9727
     3.1313   3.1953   5.8423   6.1208   6.6654   6.8044   7.0016   7.3714
     8.2758   8.3686  10.5938  10.7073  11.5147  11.5160  12.0187  12.4672
    12.8216  13.2184  13.5727  14.0109  14.1896  14.2170  14.9569  15.1571
    15.2421  15.5801  15.6977  15.7582  15.8760  16.8090  16.9738  17.3241
    17.6200  18.0106  18.0881  18.7050

     occupation numbers 
     1.0000   1.0000   1.0000   1.0000   1.0000   1.0000   1.0000   1.0000
     1.0000   1.0000   1.0000   1.0000   1.0000   1.0000   1.0000   1.0000
     1.0000   1.0000   1.0000   1.0000   1.0000   1.0000   1.0000   1.0000
     0.5244   0.3294  -0.0000  -0.0000  -0.0000  -0.0000  -0.0000  -0.0000
    -0.0000  -0.0000  -0.0000  -0.0000  -0.0000  -0.0000  -0.0000  -0.0000
    -0.0000  -0.0000  -0.0000  -0.0000  -0.0000  -0.0000  -0.0000  -0.0000
    -0.0000  -0.0000  -0.0000  -0.0000  -0.0000  -0.0000  -0.0000  -0.0000
    -0.0000  -0.0000  -0.0000  -0.0000

          k = 0.5000 0.0000 0.0000 (  5388 PWs)   bands (ev):

   -51.4653 -51.4653 -27.8728 -27.8726 -27.6937 -27.6936 -27.6359 -27.6357
    -9.1096  -8.8235  -8.6058  -8.5546  -1.9278  -1.6110  -1.3870  -1.3399
    -0.4369  -0.1553   0.0300   0.5445   0.5616   0.6332   1.6661   1.9733
     3.1311   3.1954   5.8422   6.1210   6.6659   6.8039   7.0016   7.3720
     8.2754   8.3684  10.5940  10.7074  11.5141  11.5155  12.0182  12.4672
    12.8225  13.2187  13.5729  14.0099  14.1897  14.2167  14.9582  15.1567
    15.2419  15.5813  15.6972  15.7570  15.8764  16.8095  16.9738  17.3235
    17.6206  18.0114  18.0890  18.7046

     occupation numbers 
     1.0000   1.0000   1.0000   1.0000   1.0000   1.0000   1.0000   1.0000
     1.0000   1.0000   1.0000   1.0000   1.0000   1.0000   1.0000   1.0000
     1.0000   1.0000   1.0000   1.0000   1.0000   1.0000   1.0000   1.0000
     0.5248   0.3289  -0.0000  -0.0000  -0.0000  -0.0000  -0.0000  -0.0000
    -0.0000  -0.0000  -0.0000  -0.0000  -0.0000  -0.0000  -0.0000  -0.0000
    -0.0000  -0.0000  -0.0000  -0.0000  -0.0000  -0.0000  -0.0000  -0.0000
    -0.0000  -0.0000  -0.0000  -0.0000  -0.0000  -0.0000  -0.0000  -0.0000
    -0.0000  -0.0000  -0.0000  -0.0000

          k =-0.2500 0.5292 0.0000 (  5370 PWs)   bands (ev):

   -51.4612 -51.4612 -27.8790 -27.8788 -27.7371 -27.7369 -27.6268 -27.6267
    -8.8865  -8.7288  -8.5015  -8.4918  -1.9060  -1.8135  -1.5349  -1.3672
    -0.5593  -0.2070  -0.0951   0.2709   0.4267   0.7457   1.4062   1.6996
     3.4631   3.5287   5.6508   5.7100   6.8940   6.9656   7.3490   7.6435
     8.3319   8.5170  10.0586  10.6872  11.1458  11.8347  12.1313  13.0799
    13.2636  13.4026  13.5944  14.1227  14.3485  14.6095  14.8160  15.1808
    15.2598  15.6707  15.9239  16.0588  16.1965  16.4231  16.8451  16.9094
    17.2655  17.6320  17.8836  18.7027

     occupation numbers 
     1.0000   1.0000   1.0000   1.0000   1.0000   1.0000   1.0000   1.0000
     1.0000   1.0000   1.0000   1.0000   1.0000   1.0000   1.0000   1.0000
     1.0000   1.0000   1.0000   1.0000   1.0000   1.0000   1.0000   1.0000
    -0.0353  -0.0306  -0.0000  -0.0000  -0.0000  -0.0000  -0.0000  -0.0000
    -0.0000  -0.0000  -0.0000  -0.0000  -0.0000  -0.0000  -0.0000  -0.0000
    -0.0000  -0.0000  -0.0000  -0.0000  -0.0000  -0.0000  -0.0000  -0.0000
    -0.0000  -0.0000  -0.0000  -0.0000  -0.0000  -0.0000  -0.0000  -0.0000
    -0.0000  -0.0000  -0.0000  -0.0000

          k =-0.3333 0.4811 0.0000 (  5370 PWs)   bands (ev):

   -51.4612 -51.4612 -27.8789 -27.8788 -27.7371 -27.7369 -27.6268 -27.6267
    -8.8858  -8.7293  -8.5016  -8.4919  -1.9056  -1.8142  -1.5348  -1.3678
    -0.5581  -0.2088  -0.0936   0.2706   0.4268   0.7462   1.4069   1.6982
     3.4626   3.5290   5.6507   5.7102   6.8936   6.9662   7.3486   7.6438
     8.3300   8.5184  10.0621  10.6853  11.1455  11.8344  12.1311  13.0803
    13.2622  13.4019  13.5959  14.1231  14.3489  14.6080  14.8159  15.1812
    15.2600  15.6702  15.9242  16.0592  16.1965  16.4235  16.8435  16.9111
    17.2642  17.6317  17.8858  18.7021

     occupation numbers 
     1.0000   1.0000   1.0000   1.0000   1.0000   1.0000   1.0000   1.0000
     1.0000   1.0000   1.0000   1.0000   1.0000   1.0000   1.0000   1.0000
     1.0000   1.0000   1.0000   1.0000   1.0000   1.0000   1.0000   1.0000
    -0.0353  -0.0305  -0.0000  -0.0000  -0.0000  -0.0000  -0.0000  -0.0000
    -0.0000  -0.0000  -0.0000  -0.0000  -0.0000  -0.0000  -0.0000  -0.0000
    -0.0000  -0.0000  -0.0000  -0.0000  -0.0000  -0.0000  -0.0000  -0.0000
    -0.0000  -0.0000  -0.0000  -0.0000  -0.0000  -0.0000  -0.0000  -0.0000
    -0.0000  -0.0000  -0.0000  -0.0000

          k = 0.5833 0.0481 0.0000 (  5370 PWs)   bands (ev):

   -51.4612 -51.4612 -27.8789 -27.8787 -27.7371 -27.7369 -27.6268 -27.6267
    -8.8866  -8.7286  -8.5016  -8.4918  -1.9061  -1.8135  -1.5352  -1.3673
    -0.5595  -0.2067  -0.0948   0.2711   0.4266   0.7452   1.4063   1.6998
     3.4630   3.5288   5.6508   5.7102   6.8947   6.9649   7.3485   7.6444
     8.3316   8.5169  10.0587  10.6874  11.1450  11.8343  12.1308  13.0802
    13.2634  13.4038  13.5943  14.1224  14.3488  14.6089  14.8160  15.1815
    15.2602  15.6701  15.9246  16.0594  16.1968  16.4223  16.8451  16.9094
    17.2659  17.6303  17.8848  18.7028

     occupation numbers 
     1.0000   1.0000   1.0000   1.0000   1.0000   1.0000   1.0000   1.0000
     1.0000   1.0000   1.0000   1.0000   1.0000   1.0000   1.0000   1.0000
     1.0000   1.0000   1.0000   1.0000   1.0000   1.0000   1.0000   1.0000
    -0.0353  -0.0305  -0.0000  -0.0000  -0.0000  -0.0000  -0.0000  -0.0000
    -0.0000  -0.0000  -0.0000  -0.0000  -0.0000  -0.0000  -0.0000  -0.0000
    -0.0000  -0.0000  -0.0000  -0.0000  -0.0000  -0.0000  -0.0000  -0.0000
    -0.0000  -0.0000  -0.0000  -0.0000  -0.0000  -0.0000  -0.0000  -0.0000
    -0.0000  -0.0000  -0.0000  -0.0000

          k =-0.3333-0.4811 0.0000 (  5370 PWs)   bands (ev):

   -51.4612 -51.4612 -27.8789 -27.8787 -27.7371 -27.7369 -27.6268 -27.6267
    -8.8871  -8.7282  -8.5015  -8.4917  -1.9059  -1.8136  -1.5346  -1.3674
    -0.5607  -0.2066  -0.0943   0.2710   0.4266   0.7453   1.4058   1.7005
     3.4629   3.5288   5.6510   5.7101   6.8935   6.9665   7.3497   7.6430
     8.3312   8.5172  10.0583  10.6847  11.1478  11.8354  12.1297  13.0801
    13.2632  13.4022  13.5956  14.1245  14.3481  14.6079  14.8163  15.1824
    15.2592  15.6714  15.9234  16.0589  16.1968  16.4231  16.8447  16.9098
    17.2643  17.6312  17.8854  18.7030

     occupation numbers 
     1.0000   1.0000   1.0000   1.0000   1.0000   1.0000   1.0000   1.0000
     1.0000   1.0000   1.0000   1.0000   1.0000   1.0000   1.0000   1.0000
     1.0000   1.0000   1.0000   1.0000   1.0000   1.0000   1.0000   1.0000
    -0.0353  -0.0305  -0.0000  -0.0000  -0.0000  -0.0000  -0.0000  -0.0000
    -0.0000  -0.0000  -0.0000  -0.0000  -0.0000  -0.0000  -0.0000  -0.0000
    -0.0000  -0.0000  -0.0000  -0.0000  -0.0000  -0.0000  -0.0000  -0.0000
    -0.0000  -0.0000  -0.0000  -0.0000  -0.0000  -0.0000  -0.0000  -0.0000
    -0.0000  -0.0000  -0.0000  -0.0000

          k = 0.5833-0.0481 0.0000 (  5370 PWs)   bands (ev):

   -51.4612 -51.4612 -27.8788 -27.8788 -27.7371 -27.7370 -27.6268 -27.6267
    -8.8858  -8.7293  -8.5016  -8.4919  -1.9058  -1.8141  -1.5350  -1.3678
    -0.5579  -0.2087  -0.0937   0.2710   0.4266   0.7461   1.4065   1.6986
     3.4626   3.5290   5.6507   5.7102   6.8948   6.9651   7.3483   7.6444
     8.3299   8.5183  10.0621  10.6854  11.1452  11.8341  12.1305  13.0808
    13.2622  13.4028  13.5953  14.1225  14.3495  14.6081  14.8158  15.1808
    15.2602  15.6707  15.9244  16.0591  16.1969  16.4231  16.8438  16.9104
    17.2649  17.6306  17.8864  18.7024

     occupation numbers 
     1.0000   1.0000   1.0000   1.0000   1.0000   1.0000   1.0000   1.0000
     1.0000   1.0000   1.0000   1.0000   1.0000   1.0000   1.0000   1.0000
     1.0000   1.0000   1.0000   1.0000   1.0000   1.0000   1.0000   1.0000
    -0.0352  -0.0305  -0.0000  -0.0000  -0.0000  -0.0000  -0.0000  -0.0000
    -0.0000  -0.0000  -0.0000  -0.0000  -0.0000  -0.0000  -0.0000  -0.0000
    -0.0000  -0.0000  -0.0000  -0.0000  -0.0000  -0.0000  -0.0000  -0.0000
    -0.0000  -0.0000  -0.0000  -0.0000  -0.0000  -0.0000  -0.0000  -0.0000
    -0.0000  -0.0000  -0.0000  -0.0000

     the Fermi energy is     3.1391 ev

!    total energy              =    -907.91988481 Ry

     total all-electron energy =    -18448.328907 Ry
     estimated scf accuracy    <          6.6E-10 Ry
     smearing contrib. (-TS)   =      -0.00146019 Ry
     internal energy E=F+TS    =    -907.91842462 Ry

     The total energy is F=E-TS. E is the sum of the following terms:
     one-electron contribution =   -1381.80361918 Ry
     hartree contribution      =     704.23378308 Ry
     xc contribution           =     -65.42085931 Ry
     ewald contribution        =     423.33047983 Ry
     one-center paw contrib.   =    -588.25820903 Ry
      -> PAW hartree energy AE =     101.18332972 Ry
      -> PAW hartree energy PS =    -100.66895777 Ry
      -> PAW xc energy AE      =    -324.84139297 Ry
      -> PAW xc energy PS      =      30.19791585 Ry
      -> total E_H with PAW    =     704.74815503 Ry
      -> total E_XC with PAW   =    -360.06433642 Ry

     convergence has been achieved in  13 iterations

     Writing output data file ./tmp/NbS2_bi.save/

     init_run     :     19.16s CPU     19.60s WALL (       1 calls)
     electrons    :    910.23s CPU    919.51s WALL (       1 calls)

     Called by init_run:
     wfcinit      :     17.69s CPU     17.91s WALL (       1 calls)
     wfcinit:atom :      0.09s CPU      0.09s WALL (      74 calls)
     wfcinit:wfcr :     17.19s CPU     17.41s WALL (      74 calls)
     potinit      :      0.33s CPU      0.36s WALL (       1 calls)
     hinit0       :      0.61s CPU      0.63s WALL (       1 calls)

     Called by electrons:
     c_bands      :    804.53s CPU    810.02s WALL (      14 calls)
     sum_band     :     98.53s CPU    101.00s WALL (      14 calls)
     v_of_rho     :      0.45s CPU      0.46s WALL (      14 calls)
     v_h          :      0.24s CPU      0.25s WALL (      14 calls)
     v_xc         :      0.21s CPU      0.21s WALL (      14 calls)
     newd         :      5.58s CPU      6.91s WALL (      14 calls)
     PAW_pot      :      0.83s CPU      0.83s WALL (      14 calls)
     mix_rho      :      0.48s CPU      0.49s WALL (      14 calls)

     Called by c_bands:
     init_us_2    :      3.18s CPU      3.22s WALL (    2146 calls)
     cegterg      :    795.18s CPU    800.40s WALL (    1036 calls)

     Called by sum_band:
     sum_band:wei :      0.07s CPU      0.07s WALL (      14 calls)
     sum_band:loo :     90.49s CPU     91.42s WALL (      14 calls)
     sum_band:buf :      1.37s CPU      1.38s WALL (    1036 calls)
     sum_band:ini :      1.45s CPU      1.45s WALL (    1036 calls)
     sum_band:cal :     23.96s CPU     24.01s WALL (    1036 calls)
     sum_band:bec :      0.12s CPU      0.12s WALL (    1036 calls)
     addusdens    :      7.72s CPU      9.25s WALL (      14 calls)
     addusd:skk   :      0.04s CPU      0.04s WALL (      28 calls)
     addusd:dgemm :      3.12s CPU      4.40s WALL (      28 calls)
     addusd:qvan2 :      4.12s CPU      4.12s WALL (      28 calls)

     Called by *egterg:
     cdiaghg      :     28.50s CPU     28.54s WALL (    5068 calls)
     cegterg:over :     95.30s CPU     95.44s WALL (    4106 calls)
     cegterg:upda :     53.38s CPU     53.44s WALL (    4106 calls)
     cegterg:last :    143.11s CPU    143.18s WALL (    1813 calls)
     h_psi        :    388.52s CPU    393.51s WALL (    5216 calls)
     s_psi        :     51.88s CPU     51.95s WALL (    5216 calls)
     g_psi        :      1.09s CPU      1.09s WALL (    4106 calls)

     Called by h_psi:
     h_psi:calbec :     59.22s CPU     59.42s WALL (    5216 calls)
     vloc_psi     :    276.80s CPU    281.52s WALL (    5216 calls)
     add_vuspsi   :     49.49s CPU     49.57s WALL (    5216 calls)

     General routines
     calbec       :     83.15s CPU     83.41s WALL (    6252 calls)
     fft          :      1.07s CPU      1.15s WALL (      83 calls)
     ffts         :      0.05s CPU      0.05s WALL (      28 calls)
     fftw         :    300.95s CPU    305.95s WALL (  360806 calls)
     interpolate  :      0.24s CPU      0.24s WALL (      14 calls)

     Parallel routines
     fft_scatt_xy :     32.80s CPU     33.30s WALL (  360917 calls)
     fft_scatt_yz :     24.68s CPU     25.20s WALL (  360917 calls)

     PAW routines
     PAW_pot      :      0.83s CPU      0.83s WALL (      14 calls)

     PWSCF        :  15m31.00s CPU  15m43.84s WALL


   This run was terminated on:  21:23:22  15Jun2021            

=------------------------------------------------------------------------------=
   JOB DONE.
=------------------------------------------------------------------------------=
