
     Program BANDS v.6.6 starts on 15Jun2021 at 21:49:37 

     This program is part of the open-source Quantum ESPRESSO suite
     for quantum simulation of materials; please cite
         "P. Giannozzi et al., J. Phys.:Condens. Matter 21 395502 (2009);
         "P. Giannozzi et al., J. Phys.:Condens. Matter 29 465901 (2017);
          URL http://www.quantum-espresso.org", 
     in publications or presentations arising from this work. More details at
     http://www.quantum-espresso.org/quote

     Parallel version (MPI), running on     1 processors

     MPI processes distributed on     1 nodes
     Fft bands division:     nmany     =       1

     Reading xml data from directory:

     ./tmp/NbS2_bi.save/
     file Nb.pz-spn-kjpaw_psl.1.0.0.UPF: wavefunction(s)  4S 4P 4D renormalized
     file S.pz-n-kjpaw_psl.0.1.UPF: wavefunction(s)  3P renormalized

     IMPORTANT: XC functional enforced from input :
     Exchange-correlation= PZ
                           (   1   1   0   0   0   0   0)
     Any further DFT definition will be discarded
     Please, verify this is what you really want


     G-vector sticks info
     --------------------
     sticks:   dense  smooth     PW     G-vecs:    dense   smooth      PW
     Sum        1069     433    127               171121    43317    7219


     negative rho (up, down):  1.850E-04 0.000E+00
     Reading collected, re-writing distributed wavefunctions
     high-symmetry point:  0.0000 0.0000 0.0823   x coordinate   0.0000
     high-symmetry point:  0.0000 0.5774 0.0823   x coordinate   0.5774
     high-symmetry point:  0.3333 0.5773 0.0823   x coordinate   0.9107
     high-symmetry point:  0.0000 0.0000 0.0823   x coordinate   1.5773

     Plottable bands (eV) written to file NbS2_bi.bands.gnu
     Bands written to file NbS2_bi.bands

 **************************************************************************

                    xk=(   0.00000,   0.00000,   0.08227  )

     point group C_1 (1)    
     there are  1 classes
     the character table:

       E    
A      1.00

     the symmetry operations in each class and the name of the first element:

     E        1
                                                                 

     Band symmetry, C_1 (1)     point group:

     e(  1 -  1) =    -51.50964  eV     1   --> A              
     e(  2 -  2) =    -51.50928  eV     1   --> A              
     e(  3 -  3) =    -27.73404  eV     1   --> A              
     e(  4 -  4) =    -27.73347  eV     1   --> A              
     e(  5 -  5) =    -27.50926  eV     1   --> A              
     e(  6 -  6) =    -27.50899  eV     1   --> A              
     e(  7 -  7) =    -27.50887  eV     1   --> A              
     e(  8 -  8) =    -27.50868  eV     1   --> A              
     e(  9 -  9) =    -10.77236  eV     1   --> A              
     e( 10 - 10) =    -10.34879  eV     1   --> A              
     e( 11 - 11) =     -9.33535  eV     1   --> A              
     e( 12 - 12) =     -8.88601  eV     1   --> A              
     e( 13 - 13) =     -2.65282  eV     1   --> A              
     e( 14 - 14) =     -1.65592  eV     1   --> A              
     e( 15 - 16) =      0.72432  eV     2   -->   2 A              
     e( 17 - 17) =      0.77833  eV     1   --> A              
     e( 18 - 18) =      0.77878  eV     1   --> A              
     e( 19 - 19) =      1.11222  eV     1   --> A              
     e( 20 - 20) =      1.86793  eV     1   --> A              
     e( 21 - 21) =      1.86909  eV     1   --> A              
     e( 22 - 22) =      1.89546  eV     1   --> A              
     e( 23 - 23) =      1.89599  eV     1   --> A              
     e( 24 - 24) =      2.53653  eV     1   --> A              
     e( 25 - 25) =      3.83717  eV     1   --> A              
     e( 26 - 26) =      4.72639  eV     1   --> A              
     e( 27 - 27) =      6.03488  eV     1   --> A              
     e( 28 - 28) =      6.03778  eV     1   --> A              
     e( 29 - 29) =      6.29807  eV     1   --> A              
     e( 30 - 30) =      6.30007  eV     1   --> A              
     e( 31 - 31) =      6.42034  eV     1   --> A              
     e( 32 - 32) =      6.42202  eV     1   --> A              
     e( 33 - 33) =      6.51998  eV     1   --> A              
     e( 34 - 34) =      6.52104  eV     1   --> A              
     e( 35 - 35) =      8.52701  eV     1   --> A              
     e( 36 - 36) =      8.55196  eV     1   --> A              
     e( 37 - 37) =      8.97788  eV     1   --> A              
     e( 38 - 38) =      9.46315  eV     1   --> A              
     e( 39 - 39) =     10.93291  eV     1   --> A              
     e( 40 - 40) =     11.27309  eV     1   --> A              
     e( 41 - 41) =     11.70684  eV     1   --> A              
     e( 42 - 42) =     13.07611  eV     1   --> A              
     e( 43 - 43) =     13.56108  eV     1   --> A              
     e( 44 - 44) =     13.56291  eV     1   --> A              
     e( 45 - 45) =     13.61355  eV     1   --> A              
     e( 46 - 46) =     13.61508  eV     1   --> A              
     e( 47 - 47) =     14.87020  eV     1   --> A              
     e( 48 - 48) =     15.16453  eV     1   --> A              
     e( 49 - 49) =     15.39732  eV     1   --> A              
     e( 50 - 50) =     15.39918  eV     1   --> A              
     e( 51 - 51) =     15.89519  eV     1   --> A              
     e( 52 - 52) =     16.27251  eV     1   --> A              
     e( 53 - 53) =     16.27462  eV     1   --> A              
     e( 54 - 54) =     16.65847  eV     1   --> A              
     e( 55 - 55) =     17.96244  eV     1   --> A              
     e( 56 - 56) =     17.96694  eV     1   --> A              
     e( 57 - 57) =     18.07611  eV     1   --> A              
     e( 58 - 58) =     18.89514  eV     1   --> A              
     e( 59 - 59) =     18.94329  eV     1   --> A              
     e( 60 - 60) =     19.00180  eV     1   --> A              

 **************************************************************************

 **************************************************************************

                    xk=(   0.00000,   0.01925,   0.08227  )

     Band symmetry, C_1 (1)     point group:

     e(  1 -  1) =    -51.50952  eV     1   --> A              
     e(  2 -  2) =    -51.50916  eV     1   --> A              
     e(  3 -  3) =    -27.73377  eV     1   --> A              
     e(  4 -  4) =    -27.73321  eV     1   --> A              
     e(  5 -  5) =    -27.51050  eV     1   --> A              
     e(  6 -  6) =    -27.51001  eV     1   --> A              
     e(  7 -  7) =    -27.50930  eV     1   --> A              
     e(  8 -  8) =    -27.50909  eV     1   --> A              
     e(  9 -  9) =    -10.76857  eV     1   --> A              
     e( 10 - 10) =    -10.34499  eV     1   --> A              
     e( 11 - 11) =     -9.33380  eV     1   --> A              
     e( 12 - 12) =     -8.88520  eV     1   --> A              
     e( 13 - 13) =     -2.64853  eV     1   --> A              
     e( 14 - 14) =     -1.65159  eV     1   --> A              
     e( 15 - 15) =      0.71340  eV     1   --> A              
     e( 16 - 16) =      0.72785  eV     1   --> A              
     e( 17 - 17) =      0.76804  eV     1   --> A              
     e( 18 - 18) =      0.78265  eV     1   --> A              
     e( 19 - 19) =      1.09823  eV     1   --> A              
     e( 20 - 20) =      1.84982  eV     1   --> A              
     e( 21 - 21) =      1.86075  eV     1   --> A              
     e( 22 - 22) =      1.89034  eV     1   --> A              
     e( 23 - 23) =      1.90432  eV     1   --> A              
     e( 24 - 24) =      2.54640  eV     1   --> A              
     e( 25 - 25) =      3.83513  eV     1   --> A              
     e( 26 - 26) =      4.71119  eV     1   --> A              
     e( 27 - 27) =      6.04124  eV     1   --> A              
     e( 28 - 28) =      6.04383  eV     1   --> A              
     e( 29 - 29) =      6.29307  eV     1   --> A              
     e( 30 - 30) =      6.30679  eV     1   --> A              
     e( 31 - 31) =      6.41442  eV     1   --> A              
     e( 32 - 32) =      6.41871  eV     1   --> A              
     e( 33 - 33) =      6.51220  eV     1   --> A              
     e( 34 - 34) =      6.51978  eV     1   --> A              
     e( 35 - 35) =      8.54689  eV     1   --> A              
     e( 36 - 36) =      8.56875  eV     1   --> A              
     e( 37 - 37) =      8.98632  eV     1   --> A              
     e( 38 - 38) =      9.47012  eV     1   --> A              
     e( 39 - 39) =     10.94209  eV     1   --> A              
     e( 40 - 40) =     11.28901  eV     1   --> A              
     e( 41 - 41) =     11.72466  eV     1   --> A              
     e( 42 - 42) =     13.07887  eV     1   --> A              
     e( 43 - 43) =     13.53405  eV     1   --> A              
     e( 44 - 44) =     13.56799  eV     1   --> A              
     e( 45 - 45) =     13.61064  eV     1   --> A              
     e( 46 - 46) =     13.63210  eV     1   --> A              
     e( 47 - 47) =     14.87758  eV     1   --> A              
     e( 48 - 48) =     15.18081  eV     1   --> A              
     e( 49 - 49) =     15.35283  eV     1   --> A              
     e( 50 - 50) =     15.39551  eV     1   --> A              
     e( 51 - 51) =     15.88878  eV     1   --> A              
     e( 52 - 52) =     16.24721  eV     1   --> A              
     e( 53 - 53) =     16.27393  eV     1   --> A              
     e( 54 - 54) =     16.65848  eV     1   --> A              
     e( 55 - 55) =     17.94903  eV     1   --> A              
     e( 56 - 56) =     17.96986  eV     1   --> A              
     e( 57 - 57) =     18.11378  eV     1   --> A              
     e( 58 - 58) =     18.89221  eV     1   --> A              
     e( 59 - 59) =     18.94076  eV     1   --> A              
     e( 60 - 60) =     18.99448  eV     1   --> A              

 **************************************************************************

 **************************************************************************

                    xk=(   0.00000,   0.03849,   0.08227  )

     Band symmetry, C_1 (1)     point group:

     e(  1 -  1) =    -51.50916  eV     1   --> A              
     e(  2 -  2) =    -51.50880  eV     1   --> A              
     e(  3 -  3) =    -27.73297  eV     1   --> A              
     e(  4 -  4) =    -27.73242  eV     1   --> A              
     e(  5 -  5) =    -27.51427  eV     1   --> A              
     e(  6 -  6) =    -27.51378  eV     1   --> A              
     e(  7 -  7) =    -27.51013  eV     1   --> A              
     e(  8 -  8) =    -27.50993  eV     1   --> A              
     e(  9 -  9) =    -10.75721  eV     1   --> A              
     e( 10 - 10) =    -10.33362  eV     1   --> A              
     e( 11 - 11) =     -9.32917  eV     1   --> A              
     e( 12 - 12) =     -8.88278  eV     1   --> A              
     e( 13 - 13) =     -2.63570  eV     1   --> A              
     e( 14 - 14) =     -1.63870  eV     1   --> A              
     e( 15 - 15) =      0.68083  eV     1   --> A              
     e( 16 - 16) =      0.73719  eV     1   --> A              
     e( 17 - 17) =      0.73839  eV     1   --> A              
     e( 18 - 18) =      0.79469  eV     1   --> A              
     e( 19 - 19) =      1.05839  eV     1   --> A              
     e( 20 - 20) =      1.79957  eV     1   --> A              
     e( 21 - 21) =      1.83801  eV     1   --> A              
     e( 22 - 22) =      1.87333  eV     1   --> A              
     e( 23 - 23) =      1.92622  eV     1   --> A              
     e( 24 - 24) =      2.57240  eV     1   --> A              
     e( 25 - 25) =      3.82880  eV     1   --> A              
     e( 26 - 26) =      4.66715  eV     1   --> A              
     e( 27 - 27) =      6.05886  eV     1   --> A              
     e( 28 - 28) =      6.06035  eV     1   --> A              
     e( 29 - 29) =      6.27787  eV     1   --> A              
     e( 30 - 30) =      6.32660  eV     1   --> A              
     e( 31 - 31) =      6.39660  eV     1   --> A              
     e( 32 - 32) =      6.41035  eV     1   --> A              
     e( 33 - 33) =      6.48882  eV     1   --> A              
     e( 34 - 34) =      6.51954  eV     1   --> A              
     e( 35 - 35) =      8.60543  eV     1   --> A              
     e( 36 - 36) =      8.61773  eV     1   --> A              
     e( 37 - 37) =      9.01244  eV     1   --> A              
     e( 38 - 38) =      9.49110  eV     1   --> A              
     e( 39 - 39) =     10.96791  eV     1   --> A              
     e( 40 - 40) =     11.33751  eV     1   --> A              
     e( 41 - 41) =     11.77702  eV     1   --> A              
     e( 42 - 42) =     13.08566  eV     1   --> A              
     e( 43 - 43) =     13.46512  eV     1   --> A              
     e( 44 - 44) =     13.58978  eV     1   --> A              
     e( 45 - 45) =     13.59192  eV     1   --> A              
     e( 46 - 46) =     13.68141  eV     1   --> A              
     e( 47 - 47) =     14.89380  eV     1   --> A              
     e( 48 - 48) =     15.22086  eV     1   --> A              
     e( 49 - 49) =     15.23899  eV     1   --> A              
     e( 50 - 50) =     15.38602  eV     1   --> A              
     e( 51 - 51) =     15.85993  eV     1   --> A              
     e( 52 - 52) =     16.18511  eV     1   --> A              
     e( 53 - 53) =     16.27551  eV     1   --> A              
     e( 54 - 54) =     16.65129  eV     1   --> A              
     e( 55 - 55) =     17.89531  eV     1   --> A              
     e( 56 - 56) =     17.98871  eV     1   --> A              
     e( 57 - 57) =     18.22609  eV     1   --> A              
     e( 58 - 58) =     18.82442  eV     1   --> A              
     e( 59 - 59) =     18.96652  eV     1   --> A              
     e( 60 - 60) =     19.06662  eV     1   --> A              

 **************************************************************************

 **************************************************************************

                    xk=(   0.00000,   0.05774,   0.08227  )

     Band symmetry, C_1 (1)     point group:

     e(  1 -  1) =    -51.50857  eV     1   --> A              
     e(  2 -  2) =    -51.50821  eV     1   --> A              
     e(  3 -  3) =    -27.73166  eV     1   --> A              
     e(  4 -  4) =    -27.73111  eV     1   --> A              
     e(  5 -  5) =    -27.52054  eV     1   --> A              
     e(  6 -  6) =    -27.52005  eV     1   --> A              
     e(  7 -  7) =    -27.51152  eV     1   --> A              
     e(  8 -  8) =    -27.51131  eV     1   --> A              
     e(  9 -  9) =    -10.73838  eV     1   --> A              
     e( 10 - 10) =    -10.31478  eV     1   --> A              
     e( 11 - 11) =     -9.32149  eV     1   --> A              
     e( 12 - 12) =     -8.87876  eV     1   --> A              
     e( 13 - 13) =     -2.61454  eV     1   --> A              
     e( 14 - 14) =     -1.61746  eV     1   --> A              
     e( 15 - 15) =      0.62769  eV     1   --> A              
     e( 16 - 16) =      0.68748  eV     1   --> A              
     e( 17 - 17) =      0.75565  eV     1   --> A              
     e( 18 - 18) =      0.81462  eV     1   --> A              
     e( 19 - 19) =      0.99771  eV     1   --> A              
     e( 20 - 20) =      1.72527  eV     1   --> A              
     e( 21 - 21) =      1.80209  eV     1   --> A              
     e( 22 - 22) =      1.84466  eV     1   --> A              
     e( 23 - 23) =      1.95545  eV     1   --> A              
     e( 24 - 24) =      2.60674  eV     1   --> A              
     e( 25 - 25) =      3.81761  eV     1   --> A              
     e( 26 - 26) =      4.59813  eV     1   --> A              
     e( 27 - 27) =      6.07956  eV     1   --> A              
     e( 28 - 28) =      6.08610  eV     1   --> A              
     e( 29 - 29) =      6.25472  eV     1   --> A              
     e( 30 - 30) =      6.35390  eV     1   --> A              
     e( 31 - 31) =      6.36492  eV     1   --> A              
     e( 32 - 32) =      6.40238  eV     1   --> A              
     e( 33 - 33) =      6.46151  eV     1   --> A              
     e( 34 - 34) =      6.52186  eV     1   --> A              
     e( 35 - 35) =      8.69414  eV     1   --> A              
     e( 36 - 36) =      8.69939  eV     1   --> A              
     e( 37 - 37) =      9.05900  eV     1   --> A              
     e( 38 - 38) =      9.52629  eV     1   --> A              
     e( 39 - 39) =     11.00631  eV     1   --> A              
     e( 40 - 40) =     11.41968  eV     1   --> A              
     e( 41 - 41) =     11.86051  eV     1   --> A              
     e( 42 - 42) =     13.09010  eV     1   --> A              
     e( 43 - 43) =     13.37386  eV     1   --> A              
     e( 44 - 44) =     13.55881  eV     1   --> A              
     e( 45 - 45) =     13.63260  eV     1   --> A              
     e( 46 - 46) =     13.75600  eV     1   --> A              
     e( 47 - 47) =     14.88151  eV     1   --> A              
     e( 48 - 48) =     15.10229  eV     1   --> A              
     e( 49 - 49) =     15.28344  eV     1   --> A              
     e( 50 - 50) =     15.37186  eV     1   --> A              
     e( 51 - 51) =     15.78441  eV     1   --> A              
     e( 52 - 52) =     16.13143  eV     1   --> A              
     e( 53 - 53) =     16.27813  eV     1   --> A              
     e( 54 - 54) =     16.62533  eV     1   --> A              
     e( 55 - 55) =     17.80947  eV     1   --> A              
     e( 56 - 56) =     18.01585  eV     1   --> A              
     e( 57 - 57) =     18.39735  eV     1   --> A              
     e( 58 - 58) =     18.75924  eV     1   --> A              
     e( 59 - 59) =     18.91882  eV     1   --> A              
     e( 60 - 60) =     19.14628  eV     1   --> A              

 **************************************************************************

 **************************************************************************

                    xk=(   0.00000,   0.07698,   0.08227  )

     Band symmetry, C_1 (1)     point group:

     e(  1 -  1) =    -51.50774  eV     1   --> A              
     e(  2 -  2) =    -51.50739  eV     1   --> A              
     e(  3 -  3) =    -27.72984  eV     1   --> A              
     e(  4 -  4) =    -27.72931  eV     1   --> A              
     e(  5 -  5) =    -27.52917  eV     1   --> A              
     e(  6 -  6) =    -27.52868  eV     1   --> A              
     e(  7 -  7) =    -27.51342  eV     1   --> A              
     e(  8 -  8) =    -27.51322  eV     1   --> A              
     e(  9 -  9) =    -10.71220  eV     1   --> A              
     e( 10 - 10) =    -10.28859  eV     1   --> A              
     e( 11 - 11) =     -9.31079  eV     1   --> A              
     e( 12 - 12) =     -8.87319  eV     1   --> A              
     e( 13 - 13) =     -2.58543  eV     1   --> A              
     e( 14 - 14) =     -1.58825  eV     1   --> A              
     e( 15 - 15) =      0.55571  eV     1   --> A              
     e( 16 - 16) =      0.62101  eV     1   --> A              
     e( 17 - 17) =      0.77943  eV     1   --> A              
     e( 18 - 18) =      0.84224  eV     1   --> A              
     e( 19 - 19) =      0.92155  eV     1   --> A              
     e( 20 - 20) =      1.63396  eV     1   --> A              
     e( 21 - 21) =      1.75482  eV     1   --> A              
     e( 22 - 22) =      1.80479  eV     1   --> A              
     e( 23 - 23) =      1.98577  eV     1   --> A              
     e( 24 - 24) =      2.64192  eV     1   --> A              
     e( 25 - 25) =      3.80059  eV     1   --> A              
     e( 26 - 26) =      4.50917  eV     1   --> A              
     e( 27 - 27) =      6.09559  eV     1   --> A              
     e( 28 - 28) =      6.11342  eV     1   --> A              
     e( 29 - 29) =      6.22616  eV     1   --> A              
     e( 30 - 30) =      6.31591  eV     1   --> A              
     e( 31 - 31) =      6.37411  eV     1   --> A              
     e( 32 - 32) =      6.40685  eV     1   --> A              
     e( 33 - 33) =      6.44730  eV     1   --> A              
     e( 34 - 34) =      6.53522  eV     1   --> A              
     e( 35 - 35) =      8.78932  eV     1   --> A              
     e( 36 - 36) =      8.82378  eV     1   --> A              
     e( 37 - 37) =      9.13191  eV     1   --> A              
     e( 38 - 38) =      9.57639  eV     1   --> A              
     e( 39 - 39) =     11.05345  eV     1   --> A              
     e( 40 - 40) =     11.53455  eV     1   --> A              
     e( 41 - 41) =     11.96943  eV     1   --> A              
     e( 42 - 42) =     13.07315  eV     1   --> A              
     e( 43 - 43) =     13.28780  eV     1   --> A              
     e( 44 - 44) =     13.51969  eV     1   --> A              
     e( 45 - 45) =     13.69744  eV     1   --> A              
     e( 46 - 46) =     13.85338  eV     1   --> A              
     e( 47 - 47) =     14.74581  eV     1   --> A              
     e( 48 - 48) =     15.06685  eV     1   --> A              
     e( 49 - 49) =     15.32970  eV     1   --> A              
     e( 50 - 50) =     15.35526  eV     1   --> A              
     e( 51 - 51) =     15.66950  eV     1   --> A              
     e( 52 - 52) =     16.11220  eV     1   --> A              
     e( 53 - 53) =     16.28191  eV     1   --> A              
     e( 54 - 54) =     16.57669  eV     1   --> A              
     e( 55 - 55) =     17.69989  eV     1   --> A              
     e( 56 - 56) =     18.04323  eV     1   --> A              
     e( 57 - 57) =     18.59364  eV     1   --> A              
     e( 58 - 58) =     18.70450  eV     1   --> A              
     e( 59 - 59) =     18.85555  eV     1   --> A              
     e( 60 - 60) =     19.05248  eV     1   --> A              

 **************************************************************************

 **************************************************************************

                    xk=(   0.00000,   0.09623,   0.08227  )

     Band symmetry, C_1 (1)     point group:

     e(  1 -  1) =    -51.50670  eV     1   --> A              
     e(  2 -  2) =    -51.50634  eV     1   --> A              
     e(  3 -  3) =    -27.72753  eV     1   --> A              
     e(  4 -  4) =    -27.72699  eV     1   --> A              
     e(  5 -  5) =    -27.54009  eV     1   --> A              
     e(  6 -  6) =    -27.53959  eV     1   --> A              
     e(  7 -  7) =    -27.51582  eV     1   --> A              
     e(  8 -  8) =    -27.51562  eV     1   --> A              
     e(  9 -  9) =    -10.67884  eV     1   --> A              
     e( 10 - 10) =    -10.25529  eV     1   --> A              
     e( 11 - 11) =     -9.29715  eV     1   --> A              
     e( 12 - 12) =     -8.86611  eV     1   --> A              
     e( 13 - 13) =     -2.54884  eV     1   --> A              
     e( 14 - 14) =     -1.55162  eV     1   --> A              
     e( 15 - 15) =      0.46713  eV     1   --> A              
     e( 16 - 16) =      0.54042  eV     1   --> A              
     e( 17 - 17) =      0.80918  eV     1   --> A              
     e( 18 - 18) =      0.83425  eV     1   --> A              
     e( 19 - 19) =      0.87727  eV     1   --> A              
     e( 20 - 20) =      1.53084  eV     1   --> A              
     e( 21 - 21) =      1.69815  eV     1   --> A              
     e( 22 - 22) =      1.75477  eV     1   --> A              
     e( 23 - 23) =      2.01159  eV     1   --> A              
     e( 24 - 24) =      2.67259  eV     1   --> A              
     e( 25 - 25) =      3.77650  eV     1   --> A              
     e( 26 - 26) =      4.40525  eV     1   --> A              
     e( 27 - 27) =      6.10078  eV     1   --> A              
     e( 28 - 28) =      6.13035  eV     1   --> A              
     e( 29 - 29) =      6.19285  eV     1   --> A              
     e( 30 - 30) =      6.25501  eV     1   --> A              
     e( 31 - 31) =      6.38383  eV     1   --> A              
     e( 32 - 32) =      6.42321  eV     1   --> A              
     e( 33 - 33) =      6.45678  eV     1   --> A              
     e( 34 - 34) =      6.57334  eV     1   --> A              
     e( 35 - 35) =      8.89081  eV     1   --> A              
     e( 36 - 36) =      8.97189  eV     1   --> A              
     e( 37 - 37) =      9.23995  eV     1   --> A              
     e( 38 - 38) =      9.64315  eV     1   --> A              
     e( 39 - 39) =     11.10720  eV     1   --> A              
     e( 40 - 40) =     11.67733  eV     1   --> A              
     e( 41 - 41) =     12.09530  eV     1   --> A              
     e( 42 - 42) =     13.00442  eV     1   --> A              
     e( 43 - 43) =     13.24246  eV     1   --> A              
     e( 44 - 44) =     13.48575  eV     1   --> A              
     e( 45 - 45) =     13.78386  eV     1   --> A              
     e( 46 - 46) =     13.97144  eV     1   --> A              
     e( 47 - 47) =     14.53516  eV     1   --> A              
     e( 48 - 48) =     15.07224  eV     1   --> A              
     e( 49 - 49) =     15.31667  eV     1   --> A              
     e( 50 - 50) =     15.33883  eV     1   --> A              
     e( 51 - 51) =     15.59642  eV     1   --> A              
     e( 52 - 52) =     16.11277  eV     1   --> A              
     e( 53 - 53) =     16.28708  eV     1   --> A              
     e( 54 - 54) =     16.51035  eV     1   --> A              
     e( 55 - 55) =     17.57490  eV     1   --> A              
     e( 56 - 56) =     18.05669  eV     1   --> A              
     e( 57 - 57) =     18.62032  eV     1   --> A              
     e( 58 - 58) =     18.79020  eV     1   --> A              
     e( 59 - 59) =     18.79744  eV     1   --> A              
     e( 60 - 60) =     18.92611  eV     1   --> A              

 **************************************************************************

 **************************************************************************

                    xk=(   0.00000,   0.11547,   0.08227  )

     Band symmetry, C_1 (1)     point group:

     e(  1 -  1) =    -51.50545  eV     1   --> A              
     e(  2 -  2) =    -51.50509  eV     1   --> A              
     e(  3 -  3) =    -27.72476  eV     1   --> A              
     e(  4 -  4) =    -27.72423  eV     1   --> A              
     e(  5 -  5) =    -27.55318  eV     1   --> A              
     e(  6 -  6) =    -27.55268  eV     1   --> A              
     e(  7 -  7) =    -27.51869  eV     1   --> A              
     e(  8 -  8) =    -27.51849  eV     1   --> A              
     e(  9 -  9) =    -10.63854  eV     1   --> A              
     e( 10 - 10) =    -10.21513  eV     1   --> A              
     e( 11 - 11) =     -9.28064  eV     1   --> A              
     e( 12 - 12) =     -8.85759  eV     1   --> A              
     e( 13 - 13) =     -2.50551  eV     1   --> A              
     e( 14 - 14) =     -1.50839  eV     1   --> A              
     e( 15 - 15) =      0.36460  eV     1   --> A              
     e( 16 - 16) =      0.44847  eV     1   --> A              
     e( 17 - 17) =      0.73904  eV     1   --> A              
     e( 18 - 18) =      0.84420  eV     1   --> A              
     e( 19 - 19) =      0.91926  eV     1   --> A              
     e( 20 - 20) =      1.41942  eV     1   --> A              
     e( 21 - 21) =      1.63415  eV     1   --> A              
     e( 22 - 22) =      1.69597  eV     1   --> A              
     e( 23 - 23) =      2.02858  eV     1   --> A              
     e( 24 - 24) =      2.69540  eV     1   --> A              
     e( 25 - 25) =      3.74382  eV     1   --> A              
     e( 26 - 26) =      4.29084  eV     1   --> A              
     e( 27 - 27) =      6.09409  eV     1   --> A              
     e( 28 - 28) =      6.12795  eV     1   --> A              
     e( 29 - 29) =      6.14708  eV     1   --> A              
     e( 30 - 30) =      6.20224  eV     1   --> A              
     e( 31 - 31) =      6.38334  eV     1   --> A              
     e( 32 - 32) =      6.45645  eV     1   --> A              
     e( 33 - 33) =      6.48968  eV     1   --> A              
     e( 34 - 34) =      6.63805  eV     1   --> A              
     e( 35 - 35) =      8.98853  eV     1   --> A              
     e( 36 - 36) =      9.13469  eV     1   --> A              
     e( 37 - 37) =      9.38913  eV     1   --> A              
     e( 38 - 38) =      9.73018  eV     1   --> A              
     e( 39 - 39) =     11.16691  eV     1   --> A              
     e( 40 - 40) =     11.83828  eV     1   --> A              
     e( 41 - 41) =     12.22628  eV     1   --> A              
     e( 42 - 42) =     12.89721  eV     1   --> A              
     e( 43 - 43) =     13.22863  eV     1   --> A              
     e( 44 - 44) =     13.46991  eV     1   --> A              
     e( 45 - 45) =     13.89091  eV     1   --> A              
     e( 46 - 46) =     14.10824  eV     1   --> A              
     e( 47 - 47) =     14.31279  eV     1   --> A              
     e( 48 - 48) =     14.99733  eV     1   --> A              
     e( 49 - 49) =     15.28302  eV     1   --> A              
     e( 50 - 50) =     15.32517  eV     1   --> A              
     e( 51 - 51) =     15.60621  eV     1   --> A              
     e( 52 - 52) =     16.11166  eV     1   --> A              
     e( 53 - 53) =     16.29423  eV     1   --> A              
     e( 54 - 54) =     16.44011  eV     1   --> A              
     e( 55 - 55) =     17.44215  eV     1   --> A              
     e( 56 - 56) =     18.03530  eV     1   --> A              
     e( 57 - 57) =     18.55857  eV     1   --> A              
     e( 58 - 58) =     18.69423  eV     1   --> A              
     e( 59 - 59) =     18.74437  eV     1   --> A              
     e( 60 - 60) =     19.04560  eV     1   --> A              

 **************************************************************************

 **************************************************************************

                    xk=(   0.00000,   0.13472,   0.08227  )

     Band symmetry, C_1 (1)     point group:

     e(  1 -  1) =    -51.50400  eV     1   --> A              
     e(  2 -  2) =    -51.50365  eV     1   --> A              
     e(  3 -  3) =    -27.72158  eV     1   --> A              
     e(  4 -  4) =    -27.72106  eV     1   --> A              
     e(  5 -  5) =    -27.56827  eV     1   --> A              
     e(  6 -  6) =    -27.56777  eV     1   --> A              
     e(  7 -  7) =    -27.52202  eV     1   --> A              
     e(  8 -  8) =    -27.52182  eV     1   --> A              
     e(  9 -  9) =    -10.59160  eV     1   --> A              
     e( 10 - 10) =    -10.16845  eV     1   --> A              
     e( 11 - 11) =     -9.26137  eV     1   --> A              
     e( 12 - 12) =     -8.84773  eV     1   --> A              
     e( 13 - 13) =     -2.45632  eV     1   --> A              
     e( 14 - 14) =     -1.45958  eV     1   --> A              
     e( 15 - 15) =      0.25100  eV     1   --> A              
     e( 16 - 16) =      0.34794  eV     1   --> A              
     e( 17 - 17) =      0.63829  eV     1   --> A              
     e( 18 - 18) =      0.88331  eV     1   --> A              
     e( 19 - 19) =      0.96772  eV     1   --> A              
     e( 20 - 20) =      1.30209  eV     1   --> A              
     e( 21 - 21) =      1.56519  eV     1   --> A              
     e( 22 - 22) =      1.62999  eV     1   --> A              
     e( 23 - 23) =      2.03370  eV     1   --> A              
     e( 24 - 24) =      2.70855  eV     1   --> A              
     e( 25 - 25) =      3.70092  eV     1   --> A              
     e( 26 - 26) =      4.16982  eV     1   --> A              
     e( 27 - 27) =      6.06538  eV     1   --> A              
     e( 28 - 28) =      6.09885  eV     1   --> A              
     e( 29 - 29) =      6.10808  eV     1   --> A              
     e( 30 - 30) =      6.17402  eV     1   --> A              
     e( 31 - 31) =      6.36679  eV     1   --> A              
     e( 32 - 32) =      6.51759  eV     1   --> A              
     e( 33 - 33) =      6.54043  eV     1   --> A              
     e( 34 - 34) =      6.72058  eV     1   --> A              
     e( 35 - 35) =      9.08094  eV     1   --> A              
     e( 36 - 36) =      9.30040  eV     1   --> A              
     e( 37 - 37) =      9.57636  eV     1   --> A              
     e( 38 - 38) =      9.84361  eV     1   --> A              
     e( 39 - 39) =     11.23266  eV     1   --> A              
     e( 40 - 40) =     11.99855  eV     1   --> A              
     e( 41 - 41) =     12.34880  eV     1   --> A              
     e( 42 - 42) =     12.78712  eV     1   --> A              
     e( 43 - 43) =     13.22378  eV     1   --> A              
     e( 44 - 44) =     13.47997  eV     1   --> A              
     e( 45 - 45) =     14.01692  eV     1   --> A              
     e( 46 - 46) =     14.10036  eV     1   --> A              
     e( 47 - 47) =     14.26176  eV     1   --> A              
     e( 48 - 48) =     14.82521  eV     1   --> A              
     e( 49 - 49) =     15.30169  eV     1   --> A              
     e( 50 - 50) =     15.31685  eV     1   --> A              
     e( 51 - 51) =     15.63185  eV     1   --> A              
     e( 52 - 52) =     16.09028  eV     1   --> A              
     e( 53 - 53) =     16.30426  eV     1   --> A              
     e( 54 - 54) =     16.38829  eV     1   --> A              
     e( 55 - 55) =     17.30875  eV     1   --> A              
     e( 56 - 56) =     17.96289  eV     1   --> A              
     e( 57 - 57) =     18.46490  eV     1   --> A              
     e( 58 - 58) =     18.54636  eV     1   --> A              
     e( 59 - 59) =     18.73240  eV     1   --> A              
     e( 60 - 60) =     19.19964  eV     1   --> A              

 **************************************************************************

 **************************************************************************

                    xk=(   0.00000,   0.15396,   0.08227  )

     Band symmetry, C_1 (1)     point group:

     e(  1 -  1) =    -51.50237  eV     1   --> A              
     e(  2 -  2) =    -51.50202  eV     1   --> A              
     e(  3 -  3) =    -27.71797  eV     1   --> A              
     e(  4 -  4) =    -27.71746  eV     1   --> A              
     e(  5 -  5) =    -27.58515  eV     1   --> A              
     e(  6 -  6) =    -27.58464  eV     1   --> A              
     e(  7 -  7) =    -27.52575  eV     1   --> A              
     e(  8 -  8) =    -27.52555  eV     1   --> A              
     e(  9 -  9) =    -10.53833  eV     1   --> A              
     e( 10 - 10) =    -10.11563  eV     1   --> A              
     e( 11 - 11) =     -9.23946  eV     1   --> A              
     e( 12 - 12) =     -8.83660  eV     1   --> A              
     e( 13 - 13) =     -2.40240  eV     1   --> A              
     e( 14 - 14) =     -1.40662  eV     1   --> A              
     e( 15 - 15) =      0.12929  eV     1   --> A              
     e( 16 - 16) =      0.24163  eV     1   --> A              
     e( 17 - 17) =      0.53381  eV     1   --> A              
     e( 18 - 18) =      0.92468  eV     1   --> A              
     e( 19 - 19) =      1.02193  eV     1   --> A              
     e( 20 - 20) =      1.18056  eV     1   --> A              
     e( 21 - 21) =      1.49421  eV     1   --> A              
     e( 22 - 22) =      1.55860  eV     1   --> A              
     e( 23 - 23) =      2.02522  eV     1   --> A              
     e( 24 - 24) =      2.71137  eV     1   --> A              
     e( 25 - 25) =      3.64628  eV     1   --> A              
     e( 26 - 26) =      4.04555  eV     1   --> A              
     e( 27 - 27) =      5.99990  eV     1   --> A              
     e( 28 - 28) =      6.07744  eV     1   --> A              
     e( 29 - 29) =      6.08578  eV     1   --> A              
     e( 30 - 30) =      6.16307  eV     1   --> A              
     e( 31 - 31) =      6.34173  eV     1   --> A              
     e( 32 - 32) =      6.59684  eV     1   --> A              
     e( 33 - 33) =      6.60317  eV     1   --> A              
     e( 34 - 34) =      6.81437  eV     1   --> A              
     e( 35 - 35) =      9.17173  eV     1   --> A              
     e( 36 - 36) =      9.45630  eV     1   --> A              
     e( 37 - 37) =      9.79247  eV     1   --> A              
     e( 38 - 38) =      9.99027  eV     1   --> A              
     e( 39 - 39) =     11.30486  eV     1   --> A              
     e( 40 - 40) =     12.11880  eV     1   --> A              
     e( 41 - 41) =     12.45784  eV     1   --> A              
     e( 42 - 42) =     12.69843  eV     1   --> A              
     e( 43 - 43) =     13.23119  eV     1   --> A              
     e( 44 - 44) =     13.51196  eV     1   --> A              
     e( 45 - 45) =     13.91412  eV     1   --> A              
     e( 46 - 46) =     14.16006  eV     1   --> A              
     e( 47 - 47) =     14.42930  eV     1   --> A              
     e( 48 - 48) =     14.63134  eV     1   --> A              
     e( 49 - 49) =     15.31671  eV     1   --> A              
     e( 50 - 50) =     15.33101  eV     1   --> A              
     e( 51 - 51) =     15.62967  eV     1   --> A              
     e( 52 - 52) =     16.04790  eV     1   --> A              
     e( 53 - 53) =     16.31831  eV     1   --> A              
     e( 54 - 54) =     16.37017  eV     1   --> A              
     e( 55 - 55) =     17.18196  eV     1   --> A              
     e( 56 - 56) =     17.84288  eV     1   --> A              
     e( 57 - 57) =     18.29994  eV     1   --> A              
     e( 58 - 58) =     18.46833  eV     1   --> A              
     e( 59 - 59) =     18.74187  eV     1   --> A              
     e( 60 - 60) =     19.18118  eV     1   --> A              

 **************************************************************************

 **************************************************************************

                    xk=(   0.00000,   0.17321,   0.08227  )

     Band symmetry, C_1 (1)     point group:

     e(  1 -  1) =    -51.50058  eV     1   --> A              
     e(  2 -  2) =    -51.50023  eV     1   --> A              
     e(  3 -  3) =    -27.71400  eV     1   --> A              
     e(  4 -  4) =    -27.71348  eV     1   --> A              
     e(  5 -  5) =    -27.60364  eV     1   --> A              
     e(  6 -  6) =    -27.60314  eV     1   --> A              
     e(  7 -  7) =    -27.52984  eV     1   --> A              
     e(  8 -  8) =    -27.52964  eV     1   --> A              
     e(  9 -  9) =    -10.47911  eV     1   --> A              
     e( 10 - 10) =    -10.05710  eV     1   --> A              
     e( 11 - 11) =     -9.21505  eV     1   --> A              
     e( 12 - 12) =     -8.82434  eV     1   --> A              
     e( 13 - 13) =     -2.34517  eV     1   --> A              
     e( 14 - 14) =     -1.35139  eV     1   --> A              
     e( 15 - 15) =      0.00245  eV     1   --> A              
     e( 16 - 16) =      0.13227  eV     1   --> A              
     e( 17 - 17) =      0.42712  eV     1   --> A              
     e( 18 - 18) =      0.96491  eV     1   --> A              
     e( 19 - 19) =      1.05616  eV     1   --> A              
     e( 20 - 20) =      1.08076  eV     1   --> A              
     e( 21 - 21) =      1.42549  eV     1   --> A              
     e( 22 - 22) =      1.48380  eV     1   --> A              
     e( 23 - 23) =      2.00271  eV     1   --> A              
     e( 24 - 24) =      2.70402  eV     1   --> A              
     e( 25 - 25) =      3.57879  eV     1   --> A              
     e( 26 - 26) =      3.92103  eV     1   --> A              
     e( 27 - 27) =      5.93484  eV     1   --> A              
     e( 28 - 28) =      6.04255  eV     1   --> A              
     e( 29 - 29) =      6.08361  eV     1   --> A              
     e( 30 - 30) =      6.16690  eV     1   --> A              
     e( 31 - 31) =      6.31246  eV     1   --> A              
     e( 32 - 32) =      6.67376  eV     1   --> A              
     e( 33 - 33) =      6.68637  eV     1   --> A              
     e( 34 - 34) =      6.91553  eV     1   --> A              
     e( 35 - 35) =      9.26444  eV     1   --> A              
     e( 36 - 36) =      9.59459  eV     1   --> A              
     e( 37 - 37) =     10.02716  eV     1   --> A              
     e( 38 - 38) =     10.17135  eV     1   --> A              
     e( 39 - 39) =     11.38430  eV     1   --> A              
     e( 40 - 40) =     12.15248  eV     1   --> A              
     e( 41 - 41) =     12.52108  eV     1   --> A              
     e( 42 - 42) =     12.68447  eV     1   --> A              
     e( 43 - 43) =     13.24892  eV     1   --> A              
     e( 44 - 44) =     13.55730  eV     1   --> A              
     e( 45 - 45) =     13.77158  eV     1   --> A              
     e( 46 - 46) =     14.31797  eV     1   --> A              
     e( 47 - 47) =     14.45948  eV     1   --> A              
     e( 48 - 48) =     14.60712  eV     1   --> A              
     e( 49 - 49) =     15.32765  eV     1   --> A              
     e( 50 - 50) =     15.34904  eV     1   --> A              
     e( 51 - 51) =     15.57672  eV     1   --> A              
     e( 52 - 52) =     16.01059  eV     1   --> A              
     e( 53 - 53) =     16.33747  eV     1   --> A              
     e( 54 - 54) =     16.37619  eV     1   --> A              
     e( 55 - 55) =     17.06851  eV     1   --> A              
     e( 56 - 56) =     17.69124  eV     1   --> A              
     e( 57 - 57) =     18.12397  eV     1   --> A              
     e( 58 - 58) =     18.40785  eV     1   --> A              
     e( 59 - 59) =     18.73411  eV     1   --> A              
     e( 60 - 60) =     19.16453  eV     1   --> A              

 **************************************************************************

 **************************************************************************

                    xk=(   0.00000,   0.19245,   0.08227  )

     Band symmetry, C_1 (1)     point group:

     e(  1 -  1) =    -51.49865  eV     1   --> A              
     e(  2 -  2) =    -51.49829  eV     1   --> A              
     e(  3 -  3) =    -27.70972  eV     1   --> A              
     e(  4 -  4) =    -27.70921  eV     1   --> A              
     e(  5 -  5) =    -27.62356  eV     1   --> A              
     e(  6 -  6) =    -27.62305  eV     1   --> A              
     e(  7 -  7) =    -27.53427  eV     1   --> A              
     e(  8 -  8) =    -27.53406  eV     1   --> A              
     e(  9 -  9) =    -10.41439  eV     1   --> A              
     e( 10 - 10) =     -9.99337  eV     1   --> A              
     e( 11 - 11) =     -9.18830  eV     1   --> A              
     e( 12 - 12) =     -8.81106  eV     1   --> A              
     e( 13 - 13) =     -2.28636  eV     1   --> A              
     e( 14 - 14) =     -1.29653  eV     1   --> A              
     e( 15 - 15) =     -0.12641  eV     1   --> A              
     e( 16 - 16) =      0.02257  eV     1   --> A              
     e( 17 - 17) =      0.31954  eV     1   --> A              
     e( 18 - 18) =      0.93001  eV     1   --> A              
     e( 19 - 19) =      0.99727  eV     1   --> A              
     e( 20 - 20) =      1.14177  eV     1   --> A              
     e( 21 - 21) =      1.36643  eV     1   --> A              
     e( 22 - 22) =      1.40876  eV     1   --> A              
     e( 23 - 23) =      1.96696  eV     1   --> A              
     e( 24 - 24) =      2.68718  eV     1   --> A              
     e( 25 - 25) =      3.49823  eV     1   --> A              
     e( 26 - 26) =      3.79883  eV     1   --> A              
     e( 27 - 27) =      5.87930  eV     1   --> A              
     e( 28 - 28) =      6.00663  eV     1   --> A              
     e( 29 - 29) =      6.09024  eV     1   --> A              
     e( 30 - 30) =      6.18576  eV     1   --> A              
     e( 31 - 31) =      6.28134  eV     1   --> A              
     e( 32 - 32) =      6.74952  eV     1   --> A              
     e( 33 - 33) =      6.78135  eV     1   --> A              
     e( 34 - 34) =      7.02138  eV     1   --> A              
     e( 35 - 35) =      9.36106  eV     1   --> A              
     e( 36 - 36) =      9.71613  eV     1   --> A              
     e( 37 - 37) =     10.26941  eV     1   --> A              
     e( 38 - 38) =     10.37791  eV     1   --> A              
     e( 39 - 39) =     11.47265  eV     1   --> A              
     e( 40 - 40) =     12.11486  eV     1   --> A              
     e( 41 - 41) =     12.46001  eV     1   --> A              
     e( 42 - 42) =     12.79333  eV     1   --> A              
     e( 43 - 43) =     13.25090  eV     1   --> A              
     e( 44 - 44) =     13.60953  eV     1   --> A              
     e( 45 - 45) =     13.68523  eV     1   --> A              
     e( 46 - 46) =     14.35053  eV     1   --> A              
     e( 47 - 47) =     14.48743  eV     1   --> A              
     e( 48 - 48) =     14.78897  eV     1   --> A              
     e( 49 - 49) =     15.34694  eV     1   --> A              
     e( 50 - 50) =     15.35397  eV     1   --> A              
     e( 51 - 51) =     15.47823  eV     1   --> A              
     e( 52 - 52) =     15.99129  eV     1   --> A              
     e( 53 - 53) =     16.36266  eV     1   --> A              
     e( 54 - 54) =     16.39049  eV     1   --> A              
     e( 55 - 55) =     16.97315  eV     1   --> A              
     e( 56 - 56) =     17.52359  eV     1   --> A              
     e( 57 - 57) =     17.95672  eV     1   --> A              
     e( 58 - 58) =     18.34966  eV     1   --> A              
     e( 59 - 59) =     18.67601  eV     1   --> A              
     e( 60 - 60) =     19.20254  eV     1   --> A              

 **************************************************************************

 **************************************************************************

                    xk=(   0.00000,   0.21170,   0.08227  )

     Band symmetry, C_1 (1)     point group:

     e(  1 -  1) =    -51.49659  eV     1   --> A              
     e(  2 -  2) =    -51.49624  eV     1   --> A              
     e(  3 -  3) =    -27.70517  eV     1   --> A              
     e(  4 -  4) =    -27.70467  eV     1   --> A              
     e(  5 -  5) =    -27.64463  eV     1   --> A              
     e(  6 -  6) =    -27.64413  eV     1   --> A              
     e(  7 -  7) =    -27.53896  eV     1   --> A              
     e(  8 -  8) =    -27.53876  eV     1   --> A              
     e(  9 -  9) =    -10.34465  eV     1   --> A              
     e( 10 - 10) =     -9.92499  eV     1   --> A              
     e( 11 - 11) =     -9.15940  eV     1   --> A              
     e( 12 - 12) =     -8.79692  eV     1   --> A              
     e( 13 - 13) =     -2.22804  eV     1   --> A              
     e( 14 - 14) =     -1.24568  eV     1   --> A              
     e( 15 - 15) =     -0.25382  eV     1   --> A              
     e( 16 - 16) =     -0.08468  eV     1   --> A              
     e( 17 - 17) =      0.21245  eV     1   --> A              
     e( 18 - 18) =      0.80316  eV     1   --> A              
     e( 19 - 19) =      1.00936  eV     1   --> A              
     e( 20 - 20) =      1.19538  eV     1   --> A              
     e( 21 - 21) =      1.32994  eV     1   --> A              
     e( 22 - 22) =      1.34352  eV     1   --> A              
     e( 23 - 23) =      1.91978  eV     1   --> A              
     e( 24 - 24) =      2.66187  eV     1   --> A              
     e( 25 - 25) =      3.40608  eV     1   --> A              
     e( 26 - 26) =      3.68077  eV     1   --> A              
     e( 27 - 27) =      5.83649  eV     1   --> A              
     e( 28 - 28) =      5.97227  eV     1   --> A              
     e( 29 - 29) =      6.10564  eV     1   --> A              
     e( 30 - 30) =      6.21955  eV     1   --> A              
     e( 31 - 31) =      6.25008  eV     1   --> A              
     e( 32 - 32) =      6.82861  eV     1   --> A              
     e( 33 - 33) =      6.87853  eV     1   --> A              
     e( 34 - 34) =      7.12975  eV     1   --> A              
     e( 35 - 35) =      9.46247  eV     1   --> A              
     e( 36 - 36) =      9.82615  eV     1   --> A              
     e( 37 - 37) =     10.50576  eV     1   --> A              
     e( 38 - 38) =     10.59417  eV     1   --> A              
     e( 39 - 39) =     11.57297  eV     1   --> A              
     e( 40 - 40) =     12.05444  eV     1   --> A              
     e( 41 - 41) =     12.35423  eV     1   --> A              
     e( 42 - 42) =     12.88412  eV     1   --> A              
     e( 43 - 43) =     13.22041  eV     1   --> A              
     e( 44 - 44) =     13.63448  eV     1   --> A              
     e( 45 - 45) =     13.68287  eV     1   --> A              
     e( 46 - 46) =     14.34116  eV     1   --> A              
     e( 47 - 47) =     14.66401  eV     1   --> A              
     e( 48 - 48) =     14.96436  eV     1   --> A              
     e( 49 - 49) =     15.30846  eV     1   --> A              
     e( 50 - 50) =     15.37584  eV     1   --> A              
     e( 51 - 51) =     15.40248  eV     1   --> A              
     e( 52 - 52) =     15.98193  eV     1   --> A              
     e( 53 - 53) =     16.39484  eV     1   --> A              
     e( 54 - 54) =     16.40295  eV     1   --> A              
     e( 55 - 55) =     16.89734  eV     1   --> A              
     e( 56 - 56) =     17.35274  eV     1   --> A              
     e( 57 - 57) =     17.80431  eV     1   --> A              
     e( 58 - 58) =     18.29387  eV     1   --> A              
     e( 59 - 59) =     18.57434  eV     1   --> A              
     e( 60 - 60) =     19.28455  eV     1   --> A              

 **************************************************************************

 **************************************************************************

                    xk=(   0.00000,   0.23094,   0.08227  )

     Band symmetry, C_1 (1)     point group:

     e(  1 -  1) =    -51.49444  eV     1   --> A              
     e(  2 -  2) =    -51.49408  eV     1   --> A              
     e(  3 -  3) =    -27.70042  eV     1   --> A              
     e(  4 -  4) =    -27.69993  eV     1   --> A              
     e(  5 -  5) =    -27.66662  eV     1   --> A              
     e(  6 -  6) =    -27.66611  eV     1   --> A              
     e(  7 -  7) =    -27.54387  eV     1   --> A              
     e(  8 -  8) =    -27.54367  eV     1   --> A              
     e(  9 -  9) =    -10.27040  eV     1   --> A              
     e( 10 - 10) =     -9.85258  eV     1   --> A              
     e( 11 - 11) =     -9.12854  eV     1   --> A              
     e( 12 - 12) =     -8.78207  eV     1   --> A              
     e( 13 - 13) =     -2.17263  eV     1   --> A              
     e( 14 - 14) =     -1.20409  eV     1   --> A              
     e( 15 - 15) =     -0.37562  eV     1   --> A              
     e( 16 - 16) =     -0.18668  eV     1   --> A              
     e( 17 - 17) =      0.10736  eV     1   --> A              
     e( 18 - 18) =      0.67670  eV     1   --> A              
     e( 19 - 19) =      0.98893  eV     1   --> A              
     e( 20 - 20) =      1.19479  eV     1   --> A              
     e( 21 - 21) =      1.32851  eV     1   --> A              
     e( 22 - 22) =      1.33526  eV     1   --> A              
     e( 23 - 23) =      1.86365  eV     1   --> A              
     e( 24 - 24) =      2.62926  eV     1   --> A              
     e( 25 - 25) =      3.30577  eV     1   --> A              
     e( 26 - 26) =      3.56769  eV     1   --> A              
     e( 27 - 27) =      5.80791  eV     1   --> A              
     e( 28 - 28) =      5.94135  eV     1   --> A              
     e( 29 - 29) =      6.12929  eV     1   --> A              
     e( 30 - 30) =      6.21995  eV     1   --> A              
     e( 31 - 31) =      6.26738  eV     1   --> A              
     e( 32 - 32) =      6.90949  eV     1   --> A              
     e( 33 - 33) =      6.97548  eV     1   --> A              
     e( 34 - 34) =      7.23884  eV     1   --> A              
     e( 35 - 35) =      9.56883  eV     1   --> A              
     e( 36 - 36) =      9.92890  eV     1   --> A              
     e( 37 - 37) =     10.71846  eV     1   --> A              
     e( 38 - 38) =     10.80100  eV     1   --> A              
     e( 39 - 39) =     11.68873  eV     1   --> A              
     e( 40 - 40) =     12.00554  eV     1   --> A              
     e( 41 - 41) =     12.23359  eV     1   --> A              
     e( 42 - 42) =     12.89981  eV     1   --> A              
     e( 43 - 43) =     13.14784  eV     1   --> A              
     e( 44 - 44) =     13.62851  eV     1   --> A              
     e( 45 - 45) =     13.78302  eV     1   --> A              
     e( 46 - 46) =     14.41801  eV     1   --> A              
     e( 47 - 47) =     14.84063  eV     1   --> A              
     e( 48 - 48) =     15.11581  eV     1   --> A              
     e( 49 - 49) =     15.20376  eV     1   --> A              
     e( 50 - 50) =     15.32996  eV     1   --> A              
     e( 51 - 51) =     15.48594  eV     1   --> A              
     e( 52 - 52) =     15.97687  eV     1   --> A              
     e( 53 - 53) =     16.40795  eV     1   --> A              
     e( 54 - 54) =     16.43542  eV     1   --> A              
     e( 55 - 55) =     16.83788  eV     1   --> A              
     e( 56 - 56) =     17.19125  eV     1   --> A              
     e( 57 - 57) =     17.67070  eV     1   --> A              
     e( 58 - 58) =     18.24468  eV     1   --> A              
     e( 59 - 59) =     18.45106  eV     1   --> A              
     e( 60 - 60) =     19.29005  eV     1   --> A              

 **************************************************************************

 **************************************************************************

                    xk=(   0.00000,   0.25019,   0.08227  )

     Band symmetry, C_1 (1)     point group:

     e(  1 -  1) =    -51.49221  eV     1   --> A              
     e(  2 -  2) =    -51.49185  eV     1   --> A              
     e(  3 -  3) =    -27.69578  eV     1   --> A              
     e(  4 -  4) =    -27.69529  eV     1   --> A              
     e(  5 -  5) =    -27.68901  eV     1   --> A              
     e(  6 -  6) =    -27.68850  eV     1   --> A              
     e(  7 -  7) =    -27.54894  eV     1   --> A              
     e(  8 -  8) =    -27.54874  eV     1   --> A              
     e(  9 -  9) =    -10.19224  eV     1   --> A              
     e( 10 - 10) =     -9.77681  eV     1   --> A              
     e( 11 - 11) =     -9.09595  eV     1   --> A              
     e( 12 - 12) =     -8.76667  eV     1   --> A              
     e( 13 - 13) =     -2.12286  eV     1   --> A              
     e( 14 - 14) =     -1.17912  eV     1   --> A              
     e( 15 - 15) =     -0.48668  eV     1   --> A              
     e( 16 - 16) =     -0.28048  eV     1   --> A              
     e( 17 - 17) =      0.00616  eV     1   --> A              
     e( 18 - 18) =      0.55178  eV     1   --> A              
     e( 19 - 19) =      0.93968  eV     1   --> A              
     e( 20 - 20) =      1.13208  eV     1   --> A              
     e( 21 - 21) =      1.35806  eV     1   --> A              
     e( 22 - 22) =      1.39246  eV     1   --> A              
     e( 23 - 23) =      1.80137  eV     1   --> A              
     e( 24 - 24) =      2.59061  eV     1   --> A              
     e( 25 - 25) =      3.20218  eV     1   --> A              
     e( 26 - 26) =      3.45998  eV     1   --> A              
     e( 27 - 27) =      5.79397  eV     1   --> A              
     e( 28 - 28) =      5.91527  eV     1   --> A              
     e( 29 - 29) =      6.16015  eV     1   --> A              
     e( 30 - 30) =      6.19230  eV     1   --> A              
     e( 31 - 31) =      6.32747  eV     1   --> A              
     e( 32 - 32) =      6.99073  eV     1   --> A              
     e( 33 - 33) =      7.07029  eV     1   --> A              
     e( 34 - 34) =      7.34704  eV     1   --> A              
     e( 35 - 35) =      9.67978  eV     1   --> A              
     e( 36 - 36) =     10.02630  eV     1   --> A              
     e( 37 - 37) =     10.88545  eV     1   --> A              
     e( 38 - 38) =     10.97828  eV     1   --> A              
     e( 39 - 39) =     11.80992  eV     1   --> A              
     e( 40 - 40) =     12.00221  eV     1   --> A              
     e( 41 - 41) =     12.11431  eV     1   --> A              
     e( 42 - 42) =     12.86086  eV     1   --> A              
     e( 43 - 43) =     13.03022  eV     1   --> A              
     e( 44 - 44) =     13.65135  eV     1   --> A              
     e( 45 - 45) =     13.92563  eV     1   --> A              
     e( 46 - 46) =     14.52257  eV     1   --> A              
     e( 47 - 47) =     15.00251  eV     1   --> A              
     e( 48 - 48) =     15.09467  eV     1   --> A              
     e( 49 - 49) =     15.23356  eV     1   --> A              
     e( 50 - 50) =     15.31493  eV     1   --> A              
     e( 51 - 51) =     15.60921  eV     1   --> A              
     e( 52 - 52) =     15.97547  eV     1   --> A              
     e( 53 - 53) =     16.40434  eV     1   --> A              
     e( 54 - 54) =     16.48581  eV     1   --> A              
     e( 55 - 55) =     16.79075  eV     1   --> A              
     e( 56 - 56) =     17.05472  eV     1   --> A              
     e( 57 - 57) =     17.55853  eV     1   --> A              
     e( 58 - 58) =     18.20975  eV     1   --> A              
     e( 59 - 59) =     18.32293  eV     1   --> A              
     e( 60 - 60) =     19.28220  eV     1   --> A              

 **************************************************************************

 **************************************************************************

                    xk=(   0.00000,   0.26943,   0.08227  )

     Band symmetry, C_1 (1)     point group:

     e(  1 -  1) =    -51.48993  eV     1   --> A              
     e(  2 -  2) =    -51.48957  eV     1   --> A              
     e(  3 -  3) =    -27.71256  eV     1   --> A              
     e(  4 -  4) =    -27.71206  eV     1   --> A              
     e(  5 -  5) =    -27.69024  eV     1   --> A              
     e(  6 -  6) =    -27.68977  eV     1   --> A              
     e(  7 -  7) =    -27.55412  eV     1   --> A              
     e(  8 -  8) =    -27.55392  eV     1   --> A              
     e(  9 -  9) =    -10.11079  eV     1   --> A              
     e( 10 - 10) =     -9.69840  eV     1   --> A              
     e( 11 - 11) =     -9.06187  eV     1   --> A              
     e( 12 - 12) =     -8.75092  eV     1   --> A              
     e( 13 - 13) =     -2.08160  eV     1   --> A              
     e( 14 - 14) =     -1.17968  eV     1   --> A              
     e( 15 - 15) =     -0.58173  eV     1   --> A              
     e( 16 - 16) =     -0.36296  eV     1   --> A              
     e( 17 - 17) =     -0.08874  eV     1   --> A              
     e( 18 - 18) =      0.42973  eV     1   --> A              
     e( 19 - 19) =      0.87503  eV     1   --> A              
     e( 20 - 20) =      1.05670  eV     1   --> A              
     e( 21 - 21) =      1.40567  eV     1   --> A              
     e( 22 - 22) =      1.46506  eV     1   --> A              
     e( 23 - 23) =      1.73571  eV     1   --> A              
     e( 24 - 24) =      2.54722  eV     1   --> A              
     e( 25 - 25) =      3.10063  eV     1   --> A              
     e( 26 - 26) =      3.35833  eV     1   --> A              
     e( 27 - 27) =      5.79425  eV     1   --> A              
     e( 28 - 28) =      5.89519  eV     1   --> A              
     e( 29 - 29) =      6.16799  eV     1   --> A              
     e( 30 - 30) =      6.19708  eV     1   --> A              
     e( 31 - 31) =      6.39777  eV     1   --> A              
     e( 32 - 32) =      7.07087  eV     1   --> A              
     e( 33 - 33) =      7.16145  eV     1   --> A              
     e( 34 - 34) =      7.45296  eV     1   --> A              
     e( 35 - 35) =      9.79448  eV     1   --> A              
     e( 36 - 36) =     10.11831  eV     1   --> A              
     e( 37 - 37) =     10.98801  eV     1   --> A              
     e( 38 - 38) =     11.11055  eV     1   --> A              
     e( 39 - 39) =     11.87808  eV     1   --> A              
     e( 40 - 40) =     11.99475  eV     1   --> A              
     e( 41 - 41) =     12.12262  eV     1   --> A              
     e( 42 - 42) =     12.79448  eV     1   --> A              
     e( 43 - 43) =     12.90060  eV     1   --> A              
     e( 44 - 44) =     13.69424  eV     1   --> A              
     e( 45 - 45) =     14.08437  eV     1   --> A              
     e( 46 - 46) =     14.59449  eV     1   --> A              
     e( 47 - 47) =     15.00659  eV     1   --> A              
     e( 48 - 48) =     15.11782  eV     1   --> A              
     e( 49 - 49) =     15.34152  eV     1   --> A              
     e( 50 - 50) =     15.34844  eV     1   --> A              
     e( 51 - 51) =     15.75018  eV     1   --> A              
     e( 52 - 52) =     15.97374  eV     1   --> A              
     e( 53 - 53) =     16.39368  eV     1   --> A              
     e( 54 - 54) =     16.54918  eV     1   --> A              
     e( 55 - 55) =     16.76100  eV     1   --> A              
     e( 56 - 56) =     16.96533  eV     1   --> A              
     e( 57 - 57) =     17.46799  eV     1   --> A              
     e( 58 - 58) =     18.19721  eV     1   --> A              
     e( 59 - 59) =     18.20377  eV     1   --> A              
     e( 60 - 60) =     19.29716  eV     1   --> A              

 **************************************************************************

 **************************************************************************

                    xk=(   0.00000,   0.28868,   0.08227  )

     Band symmetry, C_1 (1)     point group:

     e(  1 -  1) =    -51.48762  eV     1   --> A              
     e(  2 -  2) =    -51.48726  eV     1   --> A              
     e(  3 -  3) =    -27.73575  eV     1   --> A              
     e(  4 -  4) =    -27.73524  eV     1   --> A              
     e(  5 -  5) =    -27.68517  eV     1   --> A              
     e(  6 -  6) =    -27.68470  eV     1   --> A              
     e(  7 -  7) =    -27.55937  eV     1   --> A              
     e(  8 -  8) =    -27.55916  eV     1   --> A              
     e(  9 -  9) =    -10.02674  eV     1   --> A              
     e( 10 - 10) =     -9.61815  eV     1   --> A              
     e( 11 - 11) =     -9.02658  eV     1   --> A              
     e( 12 - 12) =     -8.73500  eV     1   --> A              
     e( 13 - 13) =     -2.05153  eV     1   --> A              
     e( 14 - 14) =     -1.21260  eV     1   --> A              
     e( 15 - 15) =     -0.65924  eV     1   --> A              
     e( 16 - 16) =     -0.43092  eV     1   --> A              
     e( 17 - 17) =     -0.17437  eV     1   --> A              
     e( 18 - 18) =      0.31211  eV     1   --> A              
     e( 19 - 19) =      0.80432  eV     1   --> A              
     e( 20 - 20) =      0.98013  eV     1   --> A              
     e( 21 - 21) =      1.46154  eV     1   --> A              
     e( 22 - 22) =      1.54155  eV     1   --> A              
     e( 23 - 23) =      1.66920  eV     1   --> A              
     e( 24 - 24) =      2.50048  eV     1   --> A              
     e( 25 - 25) =      3.00587  eV     1   --> A              
     e( 26 - 26) =      3.26422  eV     1   --> A              
     e( 27 - 27) =      5.80777  eV     1   --> A              
     e( 28 - 28) =      5.88198  eV     1   --> A              
     e( 29 - 29) =      6.14807  eV     1   --> A              
     e( 30 - 30) =      6.23851  eV     1   --> A              
     e( 31 - 31) =      6.47576  eV     1   --> A              
     e( 32 - 32) =      7.14838  eV     1   --> A              
     e( 33 - 33) =      7.24778  eV     1   --> A              
     e( 34 - 34) =      7.55537  eV     1   --> A              
     e( 35 - 35) =      9.91159  eV     1   --> A              
     e( 36 - 36) =     10.20318  eV     1   --> A              
     e( 37 - 37) =     11.02764  eV     1   --> A              
     e( 38 - 38) =     11.19032  eV     1   --> A              
     e( 39 - 39) =     11.87688  eV     1   --> A              
     e( 40 - 40) =     11.92350  eV     1   --> A              
     e( 41 - 41) =     12.31140  eV     1   --> A              
     e( 42 - 42) =     12.71219  eV     1   --> A              
     e( 43 - 43) =     12.79255  eV     1   --> A              
     e( 44 - 44) =     13.76625  eV     1   --> A              
     e( 45 - 45) =     14.23434  eV     1   --> A              
     e( 46 - 46) =     14.60401  eV     1   --> A              
     e( 47 - 47) =     14.93750  eV     1   --> A              
     e( 48 - 48) =     15.15610  eV     1   --> A              
     e( 49 - 49) =     15.45382  eV     1   --> A              
     e( 50 - 50) =     15.46280  eV     1   --> A              
     e( 51 - 51) =     15.87534  eV     1   --> A              
     e( 52 - 52) =     15.95768  eV     1   --> A              
     e( 53 - 53) =     16.37832  eV     1   --> A              
     e( 54 - 54) =     16.63082  eV     1   --> A              
     e( 55 - 55) =     16.77025  eV     1   --> A              
     e( 56 - 56) =     16.94963  eV     1   --> A              
     e( 57 - 57) =     17.39792  eV     1   --> A              
     e( 58 - 58) =     18.10569  eV     1   --> A              
     e( 59 - 59) =     18.21251  eV     1   --> A              
     e( 60 - 60) =     19.32976  eV     1   --> A              

 **************************************************************************

 **************************************************************************

                    xk=(   0.00000,   0.30792,   0.08227  )

     Band symmetry, C_1 (1)     point group:

     e(  1 -  1) =    -51.48531  eV     1   --> A              
     e(  2 -  2) =    -51.48495  eV     1   --> A              
     e(  3 -  3) =    -27.75890  eV     1   --> A              
     e(  4 -  4) =    -27.75838  eV     1   --> A              
     e(  5 -  5) =    -27.68006  eV     1   --> A              
     e(  6 -  6) =    -27.67960  eV     1   --> A              
     e(  7 -  7) =    -27.56461  eV     1   --> A              
     e(  8 -  8) =    -27.56441  eV     1   --> A              
     e(  9 -  9) =     -9.94082  eV     1   --> A              
     e( 10 - 10) =     -9.53691  eV     1   --> A              
     e( 11 - 11) =     -8.99037  eV     1   --> A              
     e( 12 - 12) =     -8.71912  eV     1   --> A              
     e( 13 - 13) =     -2.03469  eV     1   --> A              
     e( 14 - 14) =     -1.27672  eV     1   --> A              
     e( 15 - 15) =     -0.72578  eV     1   --> A              
     e( 16 - 16) =     -0.48251  eV     1   --> A              
     e( 17 - 17) =     -0.24760  eV     1   --> A              
     e( 18 - 18) =      0.20073  eV     1   --> A              
     e( 19 - 19) =      0.73229  eV     1   --> A              
     e( 20 - 20) =      0.90511  eV     1   --> A              
     e( 21 - 21) =      1.52061  eV     1   --> A              
     e( 22 - 22) =      1.60389  eV     1   --> A              
     e( 23 - 23) =      1.61893  eV     1   --> A              
     e( 24 - 24) =      2.45193  eV     1   --> A              
     e( 25 - 25) =      2.92175  eV     1   --> A              
     e( 26 - 26) =      3.17985  eV     1   --> A              
     e( 27 - 27) =      5.83323  eV     1   --> A              
     e( 28 - 28) =      5.87628  eV     1   --> A              
     e( 29 - 29) =      6.13314  eV     1   --> A              
     e( 30 - 30) =      6.28329  eV     1   --> A              
     e( 31 - 31) =      6.55875  eV     1   --> A              
     e( 32 - 32) =      7.22177  eV     1   --> A              
     e( 33 - 33) =      7.32838  eV     1   --> A              
     e( 34 - 34) =      7.65322  eV     1   --> A              
     e( 35 - 35) =     10.02909  eV     1   --> A              
     e( 36 - 36) =     10.27743  eV     1   --> A              
     e( 37 - 37) =     11.02457  eV     1   --> A              
     e( 38 - 38) =     11.21905  eV     1   --> A              
     e( 39 - 39) =     11.82095  eV     1   --> A              
     e( 40 - 40) =     11.89006  eV     1   --> A              
     e( 41 - 41) =     12.48246  eV     1   --> A              
     e( 42 - 42) =     12.64423  eV     1   --> A              
     e( 43 - 43) =     12.73476  eV     1   --> A              
     e( 44 - 44) =     13.88079  eV     1   --> A              
     e( 45 - 45) =     14.36487  eV     1   --> A              
     e( 46 - 46) =     14.57100  eV     1   --> A              
     e( 47 - 47) =     14.87697  eV     1   --> A              
     e( 48 - 48) =     15.12473  eV     1   --> A              
     e( 49 - 49) =     15.57107  eV     1   --> A              
     e( 50 - 50) =     15.61094  eV     1   --> A              
     e( 51 - 51) =     15.91217  eV     1   --> A              
     e( 52 - 52) =     15.97176  eV     1   --> A              
     e( 53 - 53) =     16.36561  eV     1   --> A              
     e( 54 - 54) =     16.73728  eV     1   --> A              
     e( 55 - 55) =     16.84293  eV     1   --> A              
     e( 56 - 56) =     17.02506  eV     1   --> A              
     e( 57 - 57) =     17.34927  eV     1   --> A              
     e( 58 - 58) =     18.04165  eV     1   --> A              
     e( 59 - 59) =     18.25293  eV     1   --> A              
     e( 60 - 60) =     19.07006  eV     1   --> A              

 **************************************************************************

 **************************************************************************

                    xk=(   0.00000,   0.32717,   0.08227  )

     Band symmetry, C_1 (1)     point group:

     e(  1 -  1) =    -51.48302  eV     1   --> A              
     e(  2 -  2) =    -51.48267  eV     1   --> A              
     e(  3 -  3) =    -27.78171  eV     1   --> A              
     e(  4 -  4) =    -27.78119  eV     1   --> A              
     e(  5 -  5) =    -27.67499  eV     1   --> A              
     e(  6 -  6) =    -27.67454  eV     1   --> A              
     e(  7 -  7) =    -27.56979  eV     1   --> A              
     e(  8 -  8) =    -27.56958  eV     1   --> A              
     e(  9 -  9) =     -9.85384  eV     1   --> A              
     e( 10 - 10) =     -9.45558  eV     1   --> A              
     e( 11 - 11) =     -8.95357  eV     1   --> A              
     e( 12 - 12) =     -8.70348  eV     1   --> A              
     e( 13 - 13) =     -2.03201  eV     1   --> A              
     e( 14 - 14) =     -1.36316  eV     1   --> A              
     e( 15 - 15) =     -0.79175  eV     1   --> A              
     e( 16 - 16) =     -0.52027  eV     1   --> A              
     e( 17 - 17) =     -0.30612  eV     1   --> A              
     e( 18 - 18) =      0.09769  eV     1   --> A              
     e( 19 - 19) =      0.66144  eV     1   --> A              
     e( 20 - 20) =      0.83281  eV     1   --> A              
     e( 21 - 21) =      1.54143  eV     1   --> A              
     e( 22 - 22) =      1.58004  eV     1   --> A              
     e( 23 - 23) =      1.69551  eV     1   --> A              
     e( 24 - 24) =      2.40341  eV     1   --> A              
     e( 25 - 25) =      2.85097  eV     1   --> A              
     e( 26 - 26) =      3.10770  eV     1   --> A              
     e( 27 - 27) =      5.86927  eV     1   --> A              
     e( 28 - 28) =      5.87846  eV     1   --> A              
     e( 29 - 29) =      6.12374  eV     1   --> A              
     e( 30 - 30) =      6.33023  eV     1   --> A              
     e( 31 - 31) =      6.64390  eV     1   --> A              
     e( 32 - 32) =      7.28969  eV     1   --> A              
     e( 33 - 33) =      7.40264  eV     1   --> A              
     e( 34 - 34) =      7.74565  eV     1   --> A              
     e( 35 - 35) =     10.14411  eV     1   --> A              
     e( 36 - 36) =     10.33576  eV     1   --> A              
     e( 37 - 37) =     10.99867  eV     1   --> A              
     e( 38 - 38) =     11.20997  eV     1   --> A              
     e( 39 - 39) =     11.76093  eV     1   --> A              
     e( 40 - 40) =     11.83795  eV     1   --> A              
     e( 41 - 41) =     12.49250  eV     1   --> A              
     e( 42 - 42) =     12.58989  eV     1   --> A              
     e( 43 - 43) =     12.84784  eV     1   --> A              
     e( 44 - 44) =     14.03641  eV     1   --> A              
     e( 45 - 45) =     14.47939  eV     1   --> A              
     e( 46 - 46) =     14.52670  eV     1   --> A              
     e( 47 - 47) =     14.82103  eV     1   --> A              
     e( 48 - 48) =     15.03752  eV     1   --> A              
     e( 49 - 49) =     15.62893  eV     1   --> A              
     e( 50 - 50) =     15.74431  eV     1   --> A              
     e( 51 - 51) =     15.86286  eV     1   --> A              
     e( 52 - 52) =     16.06017  eV     1   --> A              
     e( 53 - 53) =     16.38147  eV     1   --> A              
     e( 54 - 54) =     16.87266  eV     1   --> A              
     e( 55 - 55) =     16.97934  eV     1   --> A              
     e( 56 - 56) =     17.18104  eV     1   --> A              
     e( 57 - 57) =     17.32779  eV     1   --> A              
     e( 58 - 58) =     18.02090  eV     1   --> A              
     e( 59 - 59) =     18.30607  eV     1   --> A              
     e( 60 - 60) =     18.68906  eV     1   --> A              

 **************************************************************************

 **************************************************************************

                    xk=(   0.00000,   0.34641,   0.08227  )

     Band symmetry, C_1 (1)     point group:

     e(  1 -  1) =    -51.48078  eV     1   --> A              
     e(  2 -  2) =    -51.48043  eV     1   --> A              
     e(  3 -  3) =    -27.80394  eV     1   --> A              
     e(  4 -  4) =    -27.80342  eV     1   --> A              
     e(  5 -  5) =    -27.67001  eV     1   --> A              
     e(  6 -  6) =    -27.66958  eV     1   --> A              
     e(  7 -  7) =    -27.57484  eV     1   --> A              
     e(  8 -  8) =    -27.57463  eV     1   --> A              
     e(  9 -  9) =     -9.76662  eV     1   --> A              
     e( 10 - 10) =     -9.37516  eV     1   --> A              
     e( 11 - 11) =     -8.91651  eV     1   --> A              
     e( 12 - 12) =     -8.68826  eV     1   --> A              
     e( 13 - 13) =     -2.04302  eV     1   --> A              
     e( 14 - 14) =     -1.46186  eV     1   --> A              
     e( 15 - 15) =     -0.86272  eV     1   --> A              
     e( 16 - 16) =     -0.55180  eV     1   --> A              
     e( 17 - 17) =     -0.34967  eV     1   --> A              
     e( 18 - 18) =      0.00518  eV     1   --> A              
     e( 19 - 19) =      0.59320  eV     1   --> A              
     e( 20 - 20) =      0.76401  eV     1   --> A              
     e( 21 - 21) =      1.48285  eV     1   --> A              
     e( 22 - 22) =      1.63801  eV     1   --> A              
     e( 23 - 23) =      1.77012  eV     1   --> A              
     e( 24 - 24) =      2.35691  eV     1   --> A              
     e( 25 - 25) =      2.79516  eV     1   --> A              
     e( 26 - 26) =      3.05002  eV     1   --> A              
     e( 27 - 27) =      5.88857  eV     1   --> A              
     e( 28 - 28) =      5.91458  eV     1   --> A              
     e( 29 - 29) =      6.12013  eV     1   --> A              
     e( 30 - 30) =      6.37835  eV     1   --> A              
     e( 31 - 31) =      6.72828  eV     1   --> A              
     e( 32 - 32) =      7.35111  eV     1   --> A              
     e( 33 - 33) =      7.47019  eV     1   --> A              
     e( 34 - 34) =      7.83196  eV     1   --> A              
     e( 35 - 35) =     10.25183  eV     1   --> A              
     e( 36 - 36) =     10.37228  eV     1   --> A              
     e( 37 - 37) =     10.95649  eV     1   --> A              
     e( 38 - 38) =     11.18889  eV     1   --> A              
     e( 39 - 39) =     11.68030  eV     1   --> A              
     e( 40 - 40) =     11.78407  eV     1   --> A              
     e( 41 - 41) =     12.43679  eV     1   --> A              
     e( 42 - 42) =     12.53613  eV     1   --> A              
     e( 43 - 43) =     13.03237  eV     1   --> A              
     e( 44 - 44) =     14.20056  eV     1   --> A              
     e( 45 - 45) =     14.49206  eV     1   --> A              
     e( 46 - 46) =     14.59682  eV     1   --> A              
     e( 47 - 47) =     14.77438  eV     1   --> A              
     e( 48 - 48) =     14.90825  eV     1   --> A              
     e( 49 - 49) =     15.61802  eV     1   --> A              
     e( 50 - 50) =     15.67742  eV     1   --> A              
     e( 51 - 51) =     15.94299  eV     1   --> A              
     e( 52 - 52) =     16.16781  eV     1   --> A              
     e( 53 - 53) =     16.46778  eV     1   --> A              
     e( 54 - 54) =     17.03691  eV     1   --> A              
     e( 55 - 55) =     17.15469  eV     1   --> A              
     e( 56 - 56) =     17.34546  eV     1   --> A              
     e( 57 - 57) =     17.38992  eV     1   --> A              
     e( 58 - 58) =     18.04907  eV     1   --> A              
     e( 59 - 59) =     18.29929  eV     1   --> A              
     e( 60 - 60) =     18.36778  eV     1   --> A              

 **************************************************************************

[...]
     e( 10 - 10) =    -10.28981  eV     1   --> A              
     e( 11 - 11) =     -9.31129  eV     1   --> A              
     e( 12 - 12) =     -8.87344  eV     1   --> A              
     e( 13 - 13) =     -2.58676  eV     1   --> A              
     e( 14 - 14) =     -1.58957  eV     1   --> A              
     e( 15 - 15) =      0.56192  eV     1   --> A              
     e( 16 - 16) =      0.62049  eV     1   --> A              
     e( 17 - 17) =      0.77991  eV     1   --> A              
     e( 18 - 18) =      0.83911  eV     1   --> A              
     e( 19 - 19) =      0.92675  eV     1   --> A              
     e( 20 - 20) =      1.63790  eV     1   --> A              
     e( 21 - 21) =      1.76852  eV     1   --> A              
     e( 22 - 22) =      1.78625  eV     1   --> A              
     e( 23 - 23) =      1.99166  eV     1   --> A              
     e( 24 - 24) =      2.64179  eV     1   --> A              
     e( 25 - 25) =      3.80150  eV     1   --> A              
     e( 26 - 26) =      4.51300  eV     1   --> A              
     e( 27 - 27) =      6.09358  eV     1   --> A              
     e( 28 - 28) =      6.11183  eV     1   --> A              
     e( 29 - 29) =      6.22466  eV     1   --> A              
     e( 30 - 30) =      6.34844  eV     1   --> A              
     e( 31 - 31) =      6.36687  eV     1   --> A              
     e( 32 - 32) =      6.39100  eV     1   --> A              
     e( 33 - 33) =      6.42730  eV     1   --> A              
     e( 34 - 34) =      6.55048  eV     1   --> A              
     e( 35 - 35) =      8.78534  eV     1   --> A              
     e( 36 - 36) =      8.81850  eV     1   --> A              
     e( 37 - 37) =      9.12824  eV     1   --> A              
     e( 38 - 38) =      9.57401  eV     1   --> A              
     e( 39 - 39) =     11.05141  eV     1   --> A              
     e( 40 - 40) =     11.52952  eV     1   --> A              
     e( 41 - 41) =     11.96446  eV     1   --> A              
     e( 42 - 42) =     13.09817  eV     1   --> A              
     e( 43 - 43) =     13.25995  eV     1   --> A              
     e( 44 - 44) =     13.50358  eV     1   --> A              
     e( 45 - 45) =     13.76231  eV     1   --> A              
     e( 46 - 46) =     13.80398  eV     1   --> A              
     e( 47 - 47) =     14.76194  eV     1   --> A              
     e( 48 - 48) =     15.07468  eV     1   --> A              
     e( 49 - 49) =     15.30232  eV     1   --> A              
     e( 50 - 50) =     15.35335  eV     1   --> A              
     e( 51 - 51) =     15.68440  eV     1   --> A              
     e( 52 - 52) =     16.12130  eV     1   --> A              
     e( 53 - 53) =     16.26581  eV     1   --> A              
     e( 54 - 54) =     16.58611  eV     1   --> A              
     e( 55 - 55) =     17.76854  eV     1   --> A              
     e( 56 - 56) =     17.96436  eV     1   --> A              
     e( 57 - 57) =     18.59448  eV     1   --> A              
     e( 58 - 58) =     18.73873  eV     1   --> A              
     e( 59 - 59) =     18.82022  eV     1   --> A              
     e( 60 - 60) =     19.15226  eV     1   --> A              

 **************************************************************************

 **************************************************************************

                    xk=(   0.02857,   0.04949,   0.08227  )

     Band symmetry, C_1 (1)     point group:

     e(  1 -  1) =    -51.50859  eV     1   --> A              
     e(  2 -  2) =    -51.50823  eV     1   --> A              
     e(  3 -  3) =    -27.73170  eV     1   --> A              
     e(  4 -  4) =    -27.73115  eV     1   --> A              
     e(  5 -  5) =    -27.52015  eV     1   --> A              
     e(  6 -  6) =    -27.51989  eV     1   --> A              
     e(  7 -  7) =    -27.51160  eV     1   --> A              
     e(  8 -  8) =    -27.51117  eV     1   --> A              
     e(  9 -  9) =    -10.73907  eV     1   --> A              
     e( 10 - 10) =    -10.31546  eV     1   --> A              
     e( 11 - 11) =     -9.32177  eV     1   --> A              
     e( 12 - 12) =     -8.87890  eV     1   --> A              
     e( 13 - 13) =     -2.61531  eV     1   --> A              
     e( 14 - 14) =     -1.61823  eV     1   --> A              
     e( 15 - 15) =      0.63092  eV     1   --> A              
     e( 16 - 16) =      0.68665  eV     1   --> A              
     e( 17 - 17) =      0.75699  eV     1   --> A              
     e( 18 - 18) =      0.81314  eV     1   --> A              
     e( 19 - 19) =      1.00022  eV     1   --> A              
     e( 20 - 20) =      1.72680  eV     1   --> A              
     e( 21 - 21) =      1.81142  eV     1   --> A              
     e( 22 - 22) =      1.83532  eV     1   --> A              
     e( 23 - 23) =      1.95734  eV     1   --> A              
     e( 24 - 24) =      2.60598  eV     1   --> A              
     e( 25 - 25) =      3.81805  eV     1   --> A              
     e( 26 - 26) =      4.60065  eV     1   --> A              
     e( 27 - 27) =      6.07817  eV     1   --> A              
     e( 28 - 28) =      6.08563  eV     1   --> A              
     e( 29 - 29) =      6.25433  eV     1   --> A              
     e( 30 - 30) =      6.35341  eV     1   --> A              
     e( 31 - 31) =      6.37961  eV     1   --> A              
     e( 32 - 32) =      6.39160  eV     1   --> A              
     e( 33 - 33) =      6.45488  eV     1   --> A              
     e( 34 - 34) =      6.52759  eV     1   --> A              
     e( 35 - 35) =      8.69150  eV     1   --> A              
     e( 36 - 36) =      8.69608  eV     1   --> A              
     e( 37 - 37) =      9.05720  eV     1   --> A              
     e( 38 - 38) =      9.52499  eV     1   --> A              
     e( 39 - 39) =     11.00499  eV     1   --> A              
     e( 40 - 40) =     11.41668  eV     1   --> A              
     e( 41 - 41) =     11.85754  eV     1   --> A              
     e( 42 - 42) =     13.09367  eV     1   --> A              
     e( 43 - 43) =     13.37372  eV     1   --> A              
     e( 44 - 44) =     13.53250  eV     1   --> A              
     e( 45 - 45) =     13.68555  eV     1   --> A              
     e( 46 - 46) =     13.72559  eV     1   --> A              
     e( 47 - 47) =     14.88535  eV     1   --> A              
     e( 48 - 48) =     15.10896  eV     1   --> A              
     e( 49 - 49) =     15.27573  eV     1   --> A              
     e( 50 - 50) =     15.37048  eV     1   --> A              
     e( 51 - 51) =     15.78932  eV     1   --> A              
     e( 52 - 52) =     16.13694  eV     1   --> A              
     e( 53 - 53) =     16.27231  eV     1   --> A              
     e( 54 - 54) =     16.62806  eV     1   --> A              
     e( 55 - 55) =     17.84439  eV     1   --> A              
     e( 56 - 56) =     17.97392  eV     1   --> A              
     e( 57 - 57) =     18.40076  eV     1   --> A              
     e( 58 - 58) =     18.77172  eV     1   --> A              
     e( 59 - 59) =     18.90231  eV     1   --> A              
     e( 60 - 60) =     19.17379  eV     1   --> A              

 **************************************************************************

 **************************************************************************

                    xk=(   0.01905,   0.03299,   0.08227  )

     Band symmetry, C_1 (1)     point group:

     e(  1 -  1) =    -51.50917  eV     1   --> A              
     e(  2 -  2) =    -51.50881  eV     1   --> A              
     e(  3 -  3) =    -27.73299  eV     1   --> A              
     e(  4 -  4) =    -27.73244  eV     1   --> A              
     e(  5 -  5) =    -27.51404  eV     1   --> A              
     e(  6 -  6) =    -27.51377  eV     1   --> A              
     e(  7 -  7) =    -27.51024  eV     1   --> A              
     e(  8 -  8) =    -27.50981  eV     1   --> A              
     e(  9 -  9) =    -10.75752  eV     1   --> A              
     e( 10 - 10) =    -10.33393  eV     1   --> A              
     e( 11 - 11) =     -9.32930  eV     1   --> A              
     e( 12 - 12) =     -8.88284  eV     1   --> A              
     e( 13 - 13) =     -2.63605  eV     1   --> A              
     e( 14 - 14) =     -1.63905  eV     1   --> A              
     e( 15 - 15) =      0.68210  eV     1   --> A              
     e( 16 - 16) =      0.73220  eV     1   --> A              
     e( 17 - 17) =      0.74364  eV     1   --> A              
     e( 18 - 18) =      0.79424  eV     1   --> A              
     e( 19 - 19) =      1.05951  eV     1   --> A              
     e( 20 - 20) =      1.80008  eV     1   --> A              
     e( 21 - 21) =      1.84199  eV     1   --> A              
     e( 22 - 22) =      1.86991  eV     1   --> A              
     e( 23 - 23) =      1.92684  eV     1   --> A              
     e( 24 - 24) =      2.57183  eV     1   --> A              
     e( 25 - 25) =      3.82898  eV     1   --> A              
     e( 26 - 26) =      4.66838  eV     1   --> A              
     e( 27 - 27) =      6.05823  eV     1   --> A              
     e( 28 - 28) =      6.05999  eV     1   --> A              
     e( 29 - 29) =      6.27777  eV     1   --> A              
     e( 30 - 30) =      6.32655  eV     1   --> A              
     e( 31 - 31) =      6.39946  eV     1   --> A              
     e( 32 - 32) =      6.40841  eV     1   --> A              
     e( 33 - 33) =      6.48775  eV     1   --> A              
     e( 34 - 34) =      6.52105  eV     1   --> A              
     e( 35 - 35) =      8.60386  eV     1   --> A              
     e( 36 - 36) =      8.61642  eV     1   --> A              
     e( 37 - 37) =      9.01171  eV     1   --> A              
     e( 38 - 38) =      9.49053  eV     1   --> A              
     e( 39 - 39) =     10.96724  eV     1   --> A              
     e( 40 - 40) =     11.33617  eV     1   --> A              
     e( 41 - 41) =     11.77562  eV     1   --> A              
     e( 42 - 42) =     13.08577  eV     1   --> A              
     e( 43 - 43) =     13.46872  eV     1   --> A              
     e( 44 - 44) =     13.55827  eV     1   --> A              
     e( 45 - 45) =     13.63399  eV     1   --> A              
     e( 46 - 46) =     13.66720  eV     1   --> A              
     e( 47 - 47) =     14.89362  eV     1   --> A              
     e( 48 - 48) =     15.22297  eV     1   --> A              
     e( 49 - 49) =     15.23856  eV     1   --> A              
     e( 50 - 50) =     15.38597  eV     1   --> A              
     e( 51 - 51) =     15.86106  eV     1   --> A              
     e( 52 - 52) =     16.18817  eV     1   --> A              
     e( 53 - 53) =     16.27361  eV     1   --> A              
     e( 54 - 54) =     16.65177  eV     1   --> A              
     e( 55 - 55) =     17.90827  eV     1   --> A              
     e( 56 - 56) =     17.97322  eV     1   --> A              
     e( 57 - 57) =     18.22648  eV     1   --> A              
     e( 58 - 58) =     18.82896  eV     1   --> A              
     e( 59 - 59) =     18.95770  eV     1   --> A              
     e( 60 - 60) =     19.07307  eV     1   --> A              

 **************************************************************************

 **************************************************************************

                    xk=(   0.00952,   0.01650,   0.08227  )

     Band symmetry, C_1 (1)     point group:

     e(  1 -  1) =    -51.50952  eV     1   --> A              
     e(  2 -  2) =    -51.50917  eV     1   --> A              
     e(  3 -  3) =    -27.73377  eV     1   --> A              
     e(  4 -  4) =    -27.73321  eV     1   --> A              
     e(  5 -  5) =    -27.51035  eV     1   --> A              
     e(  6 -  6) =    -27.51007  eV     1   --> A              
     e(  7 -  7) =    -27.50941  eV     1   --> A              
     e(  8 -  8) =    -27.50899  eV     1   --> A              
     e(  9 -  9) =    -10.76865  eV     1   --> A              
     e( 10 - 10) =    -10.34507  eV     1   --> A              
     e( 11 - 11) =     -9.33383  eV     1   --> A              
     e( 12 - 12) =     -8.88522  eV     1   --> A              
     e( 13 - 13) =     -2.64861  eV     1   --> A              
     e( 14 - 14) =     -1.65168  eV     1   --> A              
     e( 15 - 15) =      0.71368  eV     1   --> A              
     e( 16 - 16) =      0.72770  eV     1   --> A              
     e( 17 - 17) =      0.76815  eV     1   --> A              
     e( 18 - 18) =      0.78269  eV     1   --> A              
     e( 19 - 19) =      1.09852  eV     1   --> A              
     e( 20 - 20) =      1.85033  eV     1   --> A              
     e( 21 - 21) =      1.86097  eV     1   --> A              
     e( 22 - 22) =      1.88976  eV     1   --> A              
     e( 23 - 23) =      1.90462  eV     1   --> A              
     e( 24 - 24) =      2.54622  eV     1   --> A              
     e( 25 - 25) =      3.83517  eV     1   --> A              
     e( 26 - 26) =      4.71152  eV     1   --> A              
     e( 27 - 27) =      6.04110  eV     1   --> A              
     e( 28 - 28) =      6.04369  eV     1   --> A              
     e( 29 - 29) =      6.29285  eV     1   --> A              
     e( 30 - 30) =      6.30695  eV     1   --> A              
     e( 31 - 31) =      6.41485  eV     1   --> A              
     e( 32 - 32) =      6.41850  eV     1   --> A              
     e( 33 - 33) =      6.51188  eV     1   --> A              
     e( 34 - 34) =      6.52028  eV     1   --> A              
     e( 35 - 35) =      8.54650  eV     1   --> A              
     e( 36 - 36) =      8.56842  eV     1   --> A              
     e( 37 - 37) =      8.98615  eV     1   --> A              
     e( 38 - 38) =      9.46998  eV     1   --> A              
     e( 39 - 39) =     10.94191  eV     1   --> A              
     e( 40 - 40) =     11.28867  eV     1   --> A              
     e( 41 - 41) =     11.72430  eV     1   --> A              
     e( 42 - 42) =     13.07882  eV     1   --> A              
     e( 43 - 43) =     13.53489  eV     1   --> A              
     e( 44 - 44) =     13.56601  eV     1   --> A              
     e( 45 - 45) =     13.61497  eV     1   --> A              
     e( 46 - 46) =     13.62915  eV     1   --> A              
     e( 47 - 47) =     14.87743  eV     1   --> A              
     e( 48 - 48) =     15.18047  eV     1   --> A              
     e( 49 - 49) =     15.35339  eV     1   --> A              
     e( 50 - 50) =     15.39590  eV     1   --> A              
     e( 51 - 51) =     15.88894  eV     1   --> A              
     e( 52 - 52) =     16.24863  eV     1   --> A              
     e( 53 - 53) =     16.27304  eV     1   --> A              
     e( 54 - 54) =     16.65849  eV     1   --> A              
     e( 55 - 55) =     17.95149  eV     1   --> A              
     e( 56 - 56) =     17.96728  eV     1   --> A              
     e( 57 - 57) =     18.11340  eV     1   --> A              
     e( 58 - 58) =     18.89343  eV     1   --> A              
     e( 59 - 59) =     18.93847  eV     1   --> A              
     e( 60 - 60) =     18.99564  eV     1   --> A              

 **************************************************************************

 **************************************************************************

                    xk=(   0.00000,   0.00000,   0.08227  )

     Band symmetry, C_1 (1)     point group:

     e(  1 -  1) =    -51.50964  eV     1   --> A              
     e(  2 -  2) =    -51.50928  eV     1   --> A              
     e(  3 -  3) =    -27.73404  eV     1   --> A              
     e(  4 -  4) =    -27.73347  eV     1   --> A              
     e(  5 -  5) =    -27.50926  eV     1   --> A              
     e(  6 -  6) =    -27.50899  eV     1   --> A              
     e(  7 -  7) =    -27.50887  eV     1   --> A              
     e(  8 -  8) =    -27.50868  eV     1   --> A              
     e(  9 -  9) =    -10.77236  eV     1   --> A              
     e( 10 - 10) =    -10.34879  eV     1   --> A              
     e( 11 - 11) =     -9.33535  eV     1   --> A              
     e( 12 - 12) =     -8.88601  eV     1   --> A              
     e( 13 - 13) =     -2.65282  eV     1   --> A              
     e( 14 - 14) =     -1.65592  eV     1   --> A              
     e( 15 - 16) =      0.72432  eV     2   -->   2 A              
     e( 17 - 17) =      0.77833  eV     1   --> A              
     e( 18 - 18) =      0.77878  eV     1   --> A              
     e( 19 - 19) =      1.11222  eV     1   --> A              
     e( 20 - 20) =      1.86793  eV     1   --> A              
     e( 21 - 21) =      1.86909  eV     1   --> A              
     e( 22 - 22) =      1.89546  eV     1   --> A              
     e( 23 - 23) =      1.89599  eV     1   --> A              
     e( 24 - 24) =      2.53653  eV     1   --> A              
     e( 25 - 25) =      3.83717  eV     1   --> A              
     e( 26 - 26) =      4.72639  eV     1   --> A              
     e( 27 - 27) =      6.03488  eV     1   --> A              
     e( 28 - 28) =      6.03778  eV     1   --> A              
     e( 29 - 29) =      6.29807  eV     1   --> A              
     e( 30 - 30) =      6.30007  eV     1   --> A              
     e( 31 - 31) =      6.42034  eV     1   --> A              
     e( 32 - 32) =      6.42202  eV     1   --> A              
     e( 33 - 33) =      6.51998  eV     1   --> A              
     e( 34 - 34) =      6.52104  eV     1   --> A              
     e( 35 - 35) =      8.52701  eV     1   --> A              
     e( 36 - 36) =      8.55196  eV     1   --> A              
     e( 37 - 37) =      8.97788  eV     1   --> A              
     e( 38 - 38) =      9.46315  eV     1   --> A              
     e( 39 - 39) =     10.93291  eV     1   --> A              
     e( 40 - 40) =     11.27309  eV     1   --> A              
     e( 41 - 41) =     11.70684  eV     1   --> A              
     e( 42 - 42) =     13.07611  eV     1   --> A              
     e( 43 - 43) =     13.56108  eV     1   --> A              
     e( 44 - 44) =     13.56291  eV     1   --> A              
     e( 45 - 45) =     13.61355  eV     1   --> A              
     e( 46 - 46) =     13.61508  eV     1   --> A              
     e( 47 - 47) =     14.87020  eV     1   --> A              
     e( 48 - 48) =     15.16453  eV     1   --> A              
     e( 49 - 49) =     15.39732  eV     1   --> A              
     e( 50 - 50) =     15.39918  eV     1   --> A              
     e( 51 - 51) =     15.89519  eV     1   --> A              
     e( 52 - 52) =     16.27251  eV     1   --> A              
     e( 53 - 53) =     16.27462  eV     1   --> A              
     e( 54 - 54) =     16.65847  eV     1   --> A              
     e( 55 - 55) =     17.96244  eV     1   --> A              
     e( 56 - 56) =     17.96694  eV     1   --> A              
     e( 57 - 57) =     18.07611  eV     1   --> A              
     e( 58 - 58) =     18.89514  eV     1   --> A              
     e( 59 - 59) =     18.94329  eV     1   --> A              
     e( 60 - 60) =     19.00180  eV     1   --> A              

 **************************************************************************

     BANDS        :   1m15.34s CPU   1m28.77s WALL


   This run was terminated on:  21:51: 5  15Jun2021            

=------------------------------------------------------------------------------=
   JOB DONE.
=------------------------------------------------------------------------------=
