
     Program PROJWFC v.6.6 starts on 15Jun2021 at 21:59:45 

     This program is part of the open-source Quantum ESPRESSO suite
     for quantum simulation of materials; please cite
         "P. Giannozzi et al., J. Phys.:Condens. Matter 21 395502 (2009);
         "P. Giannozzi et al., J. Phys.:Condens. Matter 29 465901 (2017);
          URL http://www.quantum-espresso.org", 
     in publications or presentations arising from this work. More details at
     http://www.quantum-espresso.org/quote

     Parallel version (MPI), running on     1 processors

     MPI processes distributed on     1 nodes
     Fft bands division:     nmany     =       1

     Reading xml data from directory:

     ./tmp/NbS2_bi.save/
     file Nb.pz-spn-kjpaw_psl.1.0.0.UPF: wavefunction(s)  4S 4P 4D renormalized
     file S.pz-n-kjpaw_psl.0.1.UPF: wavefunction(s)  3P renormalized

     IMPORTANT: XC functional enforced from input :
     Exchange-correlation= PZ
                           (   1   1   0   0   0   0   0)
     Any further DFT definition will be discarded
     Please, verify this is what you really want


     G-vector sticks info
     --------------------
     sticks:   dense  smooth     PW     G-vecs:    dense   smooth      PW
     Sum        1069     433    127               171121    43317    7219


     negative rho (up, down):  1.850E-04 0.000E+00

     Gaussian broadening (read from file): ngauss,degauss=   1    0.020000


     Calling projwave .... 

  Problem Sizes 
  natomwfc =           42
  nbnd     =           60
  nkstot   =           81
  npwx     =         5440
  nkb      =           68


     Atomic states used for projection
     (read from pseudopotential files):

     state #   1: atom   1 (S  ), wfc  1 (l=0 m= 1)
     state #   2: atom   1 (S  ), wfc  2 (l=1 m= 1)
     state #   3: atom   1 (S  ), wfc  2 (l=1 m= 2)
     state #   4: atom   1 (S  ), wfc  2 (l=1 m= 3)
     state #   5: atom   2 (Nb ), wfc  1 (l=0 m= 1)
     state #   6: atom   2 (Nb ), wfc  2 (l=0 m= 1)
     state #   7: atom   2 (Nb ), wfc  3 (l=1 m= 1)
     state #   8: atom   2 (Nb ), wfc  3 (l=1 m= 2)
     state #   9: atom   2 (Nb ), wfc  3 (l=1 m= 3)
     state #  10: atom   2 (Nb ), wfc  4 (l=1 m= 1)
     state #  11: atom   2 (Nb ), wfc  4 (l=1 m= 2)
     state #  12: atom   2 (Nb ), wfc  4 (l=1 m= 3)
     state #  13: atom   2 (Nb ), wfc  5 (l=2 m= 1)
     state #  14: atom   2 (Nb ), wfc  5 (l=2 m= 2)
     state #  15: atom   2 (Nb ), wfc  5 (l=2 m= 3)
     state #  16: atom   2 (Nb ), wfc  5 (l=2 m= 4)
     state #  17: atom   2 (Nb ), wfc  5 (l=2 m= 5)
     state #  18: atom   3 (S  ), wfc  1 (l=0 m= 1)
     state #  19: atom   3 (S  ), wfc  2 (l=1 m= 1)
     state #  20: atom   3 (S  ), wfc  2 (l=1 m= 2)
     state #  21: atom   3 (S  ), wfc  2 (l=1 m= 3)
     state #  22: atom   4 (S  ), wfc  1 (l=0 m= 1)
     state #  23: atom   4 (S  ), wfc  2 (l=1 m= 1)
     state #  24: atom   4 (S  ), wfc  2 (l=1 m= 2)
     state #  25: atom   4 (S  ), wfc  2 (l=1 m= 3)
     state #  26: atom   5 (Nb ), wfc  1 (l=0 m= 1)
     state #  27: atom   5 (Nb ), wfc  2 (l=0 m= 1)
     state #  28: atom   5 (Nb ), wfc  3 (l=1 m= 1)
     state #  29: atom   5 (Nb ), wfc  3 (l=1 m= 2)
     state #  30: atom   5 (Nb ), wfc  3 (l=1 m= 3)
     state #  31: atom   5 (Nb ), wfc  4 (l=1 m= 1)
     state #  32: atom   5 (Nb ), wfc  4 (l=1 m= 2)
     state #  33: atom   5 (Nb ), wfc  4 (l=1 m= 3)
     state #  34: atom   5 (Nb ), wfc  5 (l=2 m= 1)
     state #  35: atom   5 (Nb ), wfc  5 (l=2 m= 2)
     state #  36: atom   5 (Nb ), wfc  5 (l=2 m= 3)
     state #  37: atom   5 (Nb ), wfc  5 (l=2 m= 4)
     state #  38: atom   5 (Nb ), wfc  5 (l=2 m= 5)
     state #  39: atom   6 (S  ), wfc  1 (l=0 m= 1)
     state #  40: atom   6 (S  ), wfc  2 (l=1 m= 1)
     state #  41: atom   6 (S  ), wfc  2 (l=1 m= 2)
     state #  42: atom   6 (S  ), wfc  2 (l=1 m= 3)

 k =   0.0000000000  0.0000000000  0.0822700910
==== e(   1) =   -51.50964 eV ==== 
     psi = 0.959*[#  26]+0.015*[#  27]+0.010*[#  23]+0.010*[#  40]+0.002*[#  34]
          +0.002*[#  22]+0.002*[#  39]
    |psi|^2 = 1.000
==== e(   2) =   -51.50928 eV ==== 
     psi = 0.959*[#   5]+0.015*[#   6]+0.010*[#   2]+0.010*[#  19]+0.002*[#  13]
          +0.002*[#   1]+0.002*[#  18]
    |psi|^2 = 1.000
==== e(   3) =   -27.73404 eV ==== 
     psi = 0.771*[#  28]+0.196*[#   7]+0.010*[#  31]+0.005*[#  22]+0.005*[#  39]
          +0.003*[#  40]+0.003*[#  23]+0.003*[#  10]+0.001*[#   1]+0.001*[#  18]
          
    |psi|^2 = 1.000
==== e(   4) =   -27.73347 eV ==== 
     psi = 0.772*[#   7]+0.197*[#  28]+0.008*[#  10]+0.005*[#   1]+0.005*[#  18]
          +0.003*[#   2]+0.003*[#  19]+0.002*[#  31]+0.001*[#  22]+0.001*[#  39]
          +0.001*[#  23]
    |psi|^2 = 1.000
==== e(   5) =   -27.50926 eV ==== 
     psi = 0.837*[#  30]+0.131*[#  29]+0.023*[#  33]+0.004*[#  32]+0.002*[#   9]
          +0.002*[#  25]+0.001*[#  42]
    |psi|^2 = 1.000
==== e(   6) =   -27.50899 eV ==== 
     psi = 0.802*[#  29]+0.124*[#  30]+0.035*[#   8]+0.022*[#  32]+0.009*[#   9]
          +0.003*[#  33]+0.002*[#  24]+0.001*[#  41]
    |psi|^2 = 1.000
==== e(   7) =   -27.50887 eV ==== 
     psi = 0.684*[#   8]+0.241*[#   9]+0.037*[#  29]+0.019*[#  11]+0.008*[#  30]
          +0.007*[#  12]+0.001*[#   3]+0.001*[#  20]
    |psi|^2 = 1.000
==== e(   8) =   -27.50868 eV ==== 
     psi = 0.717*[#   9]+0.250*[#   8]+0.020*[#  12]+0.007*[#  11]+0.001*[#   4]
          +0.001*[#  21]+0.001*[#  30]
    |psi|^2 = 1.000
==== e(   9) =   -10.77236 eV ==== 
     psi = 0.208*[#  22]+0.208*[#   1]+0.178*[#  27]+0.178*[#   6]+0.079*[#  18]
          +0.079*[#  39]+0.023*[#  10]+0.023*[#  31]+0.008*[#   5]+0.008*[#  26]
          +0.002*[#  19]+0.002*[#  40]
    |psi|^2 = 0.999
==== e(  10) =   -10.34879 eV ==== 
     psi = 0.178*[#   6]+0.178*[#  27]+0.155*[#  18]+0.155*[#  39]+0.138*[#   1]
          +0.137*[#  22]+0.010*[#   5]+0.010*[#  26]+0.010*[#   2]+0.010*[#  23]
          +0.004*[#  10]+0.004*[#  31]+0.004*[#  19]+0.004*[#  40]
    |psi|^2 = 0.999
==== e(  11) =    -9.33535 eV ==== 
     psi = 0.222*[#  39]+0.222*[#  18]+0.181*[#  31]+0.181*[#  10]+0.069*[#  22]
          +0.068*[#   1]+0.014*[#   6]+0.014*[#  27]+0.011*[#   7]+0.011*[#  28]
          +0.002*[#   2]+0.002*[#  23]
    |psi|^2 = 0.999
==== e(  12) =    -8.88601 eV ==== 
     psi = 0.182*[#   1]+0.182*[#  22]+0.159*[#  10]+0.159*[#  31]+0.144*[#  18]
          +0.144*[#  39]+0.012*[#   7]+0.012*[#  28]+0.002*[#   2]+0.002*[#  23]
          
    |psi|^2 = 0.999
==== e(  13) =    -2.65282 eV ==== 
     psi = 0.231*[#   2]+0.231*[#  23]+0.121*[#  13]+0.121*[#  34]+0.093*[#  19]
          +0.093*[#  40]+0.022*[#  18]+0.022*[#  39]+0.015*[#   6]+0.015*[#  27]
          +0.010*[#   5]+0.010*[#  26]+0.003*[#   1]+0.003*[#  22]
    |psi|^2 = 0.991
==== e(  14) =    -1.65592 eV ==== 
     psi = 0.173*[#  19]+0.173*[#  40]+0.170*[#  13]+0.170*[#  34]+0.079*[#   2]
          +0.079*[#  23]+0.031*[#   1]+0.031*[#  22]+0.014*[#   6]+0.014*[#  27]
          +0.014*[#  18]+0.014*[#  39]+0.009*[#   5]+0.009*[#  26]+0.001*[#  10]
          +0.001*[#  31]
    |psi|^2 = 0.986
==== e(  15) =     0.72432 eV ==== 
     psi = 0.241*[#  38]+0.235*[#  17]+0.119*[#  24]+0.117*[#   3]+0.065*[#  41]
          +0.064*[#  20]+0.041*[#  16]+0.039*[#  37]+0.020*[#   4]+0.020*[#  25]
          +0.011*[#  21]+0.011*[#  42]+0.001*[#  11]+0.002*[#  32]+0.001*[#  14]
          +0.001*[#  35]
    |psi|^2 = 0.991
==== e(  16) =     0.72439 eV ==== 
     psi = 0.238*[#  16]+0.237*[#  37]+0.119*[#   4]+0.118*[#  25]+0.065*[#  21]
          +0.064*[#  42]+0.042*[#  38]+0.039*[#  17]+0.021*[#  24]+0.019*[#   3]
          +0.011*[#  41]+0.011*[#  20]+0.002*[#  12]+0.001*[#  15]+0.001*[#  33]
          +0.001*[#  36]
    |psi|^2 = 0.991
==== e(  17) =     0.77833 eV ==== 
     psi = 0.184*[#  37]+0.184*[#  16]+0.106*[#  17]+0.101*[#  38]+0.077*[#   4]
          +0.077*[#  25]+0.054*[#  42]+0.054*[#  21]+0.044*[#   3]+0.042*[#  24]
          +0.031*[#  20]+0.030*[#  41]+0.001*[#  12]+0.001*[#  33]
    |psi|^2 = 0.990
==== e(  18) =     0.77878 eV ==== 
     psi = 0.186*[#  17]+0.182*[#  38]+0.105*[#  37]+0.102*[#  16]+0.078*[#   3]
          +0.076*[#  24]+0.055*[#  20]+0.054*[#  41]+0.044*[#  25]+0.042*[#   4]
          +0.031*[#  42]+0.030*[#  21]+0.001*[#  11]+0.001*[#  32]
    |psi|^2 = 0.990
==== e(  19) =     1.11222 eV ==== 
     psi = 0.258*[#  19]+0.259*[#  40]+0.196*[#   2]+0.196*[#  23]+0.021*[#  13]
          +0.021*[#  34]+0.009*[#   1]+0.009*[#  22]+0.007*[#  10]+0.007*[#  31]
          +0.004*[#   7]+0.004*[#  28]
    |psi|^2 = 0.993
==== e(  20) =     1.86793 eV ==== 
     psi = 0.126*[#  36]+0.100*[#  35]+0.097*[#  14]+0.096*[#  42]+0.095*[#  15]
          +0.077*[#  41]+0.074*[#  20]+0.074*[#  21]+0.072*[#  25]+0.057*[#  24]
          +0.055*[#   3]+0.055*[#   4]+0.003*[#  37]+0.002*[#  16]+0.002*[#  38]
          +0.002*[#  17]
    |psi|^2 = 0.988
==== e(  21) =     1.86909 eV ==== 
     psi = 0.125*[#  14]+0.098*[#  36]+0.098*[#  15]+0.097*[#  35]+0.095*[#  20]
          +0.075*[#  42]+0.075*[#  21]+0.075*[#  41]+0.071*[#   3]+0.056*[#  25]
          +0.056*[#   4]+0.056*[#  24]+0.003*[#  17]+0.002*[#  16]+0.002*[#  37]
          +0.002*[#  38]
    |psi|^2 = 0.988
==== e(  22) =     1.89546 eV ==== 
     psi = 0.211*[#  15]+0.174*[#  36]+0.145*[#  21]+0.118*[#  42]+0.117*[#   4]
          +0.096*[#  25]+0.031*[#  14]+0.024*[#  35]+0.021*[#  20]+0.017*[#   3]
          +0.016*[#  41]+0.013*[#  24]+0.002*[#  16]+0.001*[#  37]
    |psi|^2 = 0.987
==== e(  23) =     1.89599 eV ==== 
     psi = 0.208*[#  35]+0.177*[#  14]+0.143*[#  41]+0.120*[#  20]+0.115*[#  24]
          +0.098*[#   3]+0.030*[#  36]+0.024*[#  15]+0.021*[#  42]+0.017*[#  25]
          +0.016*[#  21]+0.013*[#   4]+0.002*[#  38]+0.001*[#  17]
    |psi|^2 = 0.987
==== e(  24) =     2.53653 eV ==== 
     psi = 0.275*[#  19]+0.275*[#  40]+0.161*[#   2]+0.161*[#  23]+0.049*[#  13]
          +0.049*[#  34]+0.003*[#  10]+0.003*[#  31]+0.003*[#   7]+0.003*[#  28]
          +0.001*[#   1]+0.001*[#  22]
    |psi|^2 = 0.988
==== e(  25) =     3.83717 eV ==== 
     psi = 0.325*[#  34]+0.325*[#  13]+0.113*[#  19]+0.113*[#  40]+0.042*[#   2]
          +0.042*[#  23]+0.001*[#  18]+0.001*[#  39]+0.001*[#   1]+0.001*[#  22]
          
    |psi|^2 = 0.967
==== e(  26) =     4.72639 eV ==== 
     psi = 0.260*[#  13]+0.260*[#  34]+0.180*[#   2]+0.180*[#  23]+0.024*[#   1]
          +0.024*[#  22]+0.014*[#  19]+0.014*[#  40]+0.005*[#   6]+0.005*[#  27]
          +0.004*[#  10]+0.004*[#  18]+0.004*[#  31]+0.004*[#  39]+0.001*[#   5]
          +0.001*[#  26]
    |psi|^2 = 0.984
==== e(  27) =     6.03488 eV ==== 
     psi = 0.216*[#  35]+0.214*[#  14]+0.178*[#   3]+0.177*[#  24]+0.034*[#  17]
          +0.033*[#  38]+0.021*[#  41]+0.020*[#  20]+0.015*[#  15]+0.014*[#  36]
          +0.013*[#   4]+0.012*[#  25]+0.002*[#  16]+0.002*[#  37]+0.002*[#  21]
          +0.001*[#  42]
    |psi|^2 = 0.956
==== e(  28) =     6.03778 eV ==== 
     psi = 0.217*[#  15]+0.216*[#  36]+0.177*[#  25]+0.176*[#   4]+0.033*[#  37]
          +0.032*[#  16]+0.022*[#  21]+0.021*[#  42]+0.016*[#  35]+0.014*[#  14]
          +0.013*[#  24]+0.012*[#   3]+0.002*[#  17]+0.002*[#  38]+0.002*[#  41]
          +0.001*[#  20]
    |psi|^2 = 0.956
==== e(  29) =     6.29807 eV ==== 
     psi = 0.184*[#  15]+0.181*[#  36]+0.167*[#  21]+0.158*[#  42]+0.043*[#  14]
          +0.041*[#  35]+0.037*[#  41]+0.037*[#  20]+0.025*[#  25]+0.023*[#   4]
          +0.022*[#  16]+0.019*[#  37]+0.006*[#   3]+0.005*[#  24]+0.005*[#  38]
          +0.004*[#  17]
    |psi|^2 = 0.959
==== e(  30) =     6.30007 eV ==== 
     psi = 0.185*[#  35]+0.182*[#  14]+0.166*[#  41]+0.156*[#  20]+0.042*[#  36]
          +0.041*[#  15]+0.037*[#  21]+0.037*[#  42]+0.026*[#   3]+0.024*[#  24]
          +0.021*[#  38]+0.018*[#  17]+0.006*[#  25]+0.005*[#   4]+0.005*[#  16]
          +0.004*[#  37]
    |psi|^2 = 0.958
==== e(  31) =     6.42034 eV ==== 
     psi = 0.234*[#  42]+0.222*[#  21]+0.171*[#  37]+0.165*[#  16]+0.044*[#  25]
          +0.044*[#   4]+0.039*[#  36]+0.036*[#  15]+0.007*[#  33]+0.007*[#  12]
          +0.003*[#  20]+0.002*[#  41]+0.002*[#  17]+0.002*[#  38]
    |psi|^2 = 0.980
==== e(  32) =     6.42202 eV ==== 
     psi = 0.235*[#  20]+0.223*[#  41]+0.170*[#  17]+0.164*[#  38]+0.043*[#  24]
          +0.043*[#   3]+0.041*[#  14]+0.037*[#  35]+0.007*[#  11]+0.007*[#  32]
          +0.003*[#  42]+0.002*[#  21]+0.002*[#  37]+0.002*[#  16]
    |psi|^2 = 0.980
==== e(  33) =     6.51998 eV ==== 
     psi = 0.213*[#  24]+0.210*[#   3]+0.173*[#  38]+0.169*[#  17]+0.056*[#  41]
          +0.054*[#  20]+0.034*[#  14]+0.034*[#  35]+0.010*[#  32]+0.010*[#  11]
          +0.004*[#   4]+0.004*[#  25]+0.003*[#  37]+0.003*[#  16]+0.001*[#  42]
          
    |psi|^2 = 0.980
==== e(  34) =     6.52104 eV ==== 
     psi = 0.215*[#   4]+0.211*[#  25]+0.172*[#  16]+0.167*[#  37]+0.055*[#  21]
          +0.052*[#  42]+0.036*[#  36]+0.036*[#  15]+0.010*[#  12]+0.010*[#  33]
          +0.004*[#   3]+0.004*[#  24]+0.003*[#  17]+0.003*[#  38]+0.001*[#  20]
          
    |psi|^2 = 0.980
==== e(  35) =     8.52701 eV ==== 
     psi = 0.242*[#  27]+0.238*[#   6]+0.082*[#  39]+0.081*[#  18]+0.062*[#  22]
          +0.061*[#   1]+0.013*[#  40]+0.013*[#  19]+0.010*[#  23]+0.010*[#   2]
          +0.004*[#  13]+0.004*[#  34]+0.002*[#  10]+0.003*[#  31]
    |psi|^2 = 0.825
==== e(  36) =     8.55196 eV ==== 
     psi = 0.207*[#   6]+0.203*[#  27]+0.069*[#  18]+0.068*[#  39]+0.033*[#   1]
          +0.032*[#  22]+0.031*[#   2]+0.030*[#  23]+0.010*[#  19]+0.010*[#  40]
          +0.006*[#  10]+0.006*[#  31]
    |psi|^2 = 0.705
==== e(  37) =     8.97788 eV ==== 
     psi = 0.029*[#  10]+0.029*[#  31]+0.028*[#   6]+0.028*[#  27]+0.019*[#   1]
          +0.019*[#  22]+0.006*[#   2]+0.006*[#  23]+0.004*[#  19]+0.004*[#  40]
          +0.003*[#  13]+0.003*[#  34]
    |psi|^2 = 0.183
==== e(  38) =     9.46315 eV ==== 
     psi = 0.032*[#  10]+0.032*[#  31]+0.016*[#   1]+0.016*[#  22]+0.007*[#  13]
          +0.007*[#  34]+0.006*[#  18]+0.006*[#  39]+0.002*[#   6]+0.002*[#  27]
          +0.001*[#  19]+0.001*[#  40]
    |psi|^2 = 0.130
==== e(  39) =    10.93291 eV ==== 
     psi = 0.148*[#  10]+0.148*[#  31]+0.061*[#  18]+0.061*[#  39]+0.018*[#   1]
          +0.018*[#  22]+0.005*[#  13]+0.005*[#  34]+0.002*[#   6]+0.002*[#  27]
          +0.002*[#  19]+0.002*[#  40]
    |psi|^2 = 0.470
==== e(  40) =    11.27309 eV ==== 
     psi = 0.076*[#  10]+0.077*[#  31]+0.029*[#  18]+0.029*[#  39]+0.017*[#   1]
          +0.017*[#  22]+0.002*[#  19]+0.002*[#  40]
    |psi|^2 = 0.249
==== e(  41) =    11.70684 eV ==== 
     psi = 0.188*[#  10]+0.188*[#  31]+0.085*[#   1]+0.085*[#  22]+0.056*[#  18]
          +0.056*[#  39]+0.007*[#   2]+0.007*[#  23]+0.004*[#  19]+0.004*[#  40]
          
    |psi|^2 = 0.681
==== e(  42) =    13.07611 eV ==== 
     psi = 0.015*[#   6]+0.015*[#  27]+0.012*[#  18]+0.012*[#  39]+0.009*[#  13]
          +0.009*[#  34]+0.006*[#  10]+0.006*[#  31]+0.001*[#   2]+0.001*[#  23]
          
    |psi|^2 = 0.088
==== e(  43) =    13.56108 eV ==== 
     psi = 0.196*[#  12]+0.196*[#  33]+0.101*[#  32]+0.095*[#  11]+0.006*[#   9]
          +0.006*[#  30]+0.003*[#  29]+0.003*[#   8]+0.002*[#  21]+0.002*[#  42]
          +0.002*[#   4]+0.002*[#  25]+0.001*[#  41]+0.001*[#  20]
    |psi|^2 = 0.619
==== e(  44) =    13.56291 eV ==== 
     psi = 0.198*[#  32]+0.194*[#  11]+0.100*[#  12]+0.095*[#  33]+0.006*[#   8]
          +0.006*[#  29]+0.003*[#   9]+0.003*[#  30]+0.002*[#  20]+0.002*[#  41]
          +0.002*[#   3]+0.002*[#  24]+0.001*[#  21]+0.001*[#  42]
    |psi|^2 = 0.619
==== e(  45) =    13.61355 eV ==== 
     psi = 0.177*[#  11]+0.173*[#  32]+0.068*[#  33]+0.064*[#  12]+0.005*[#   8]
          +0.005*[#  29]+0.005*[#  20]+0.005*[#  41]+0.003*[#  17]+0.003*[#  38]
          +0.003*[#   3]+0.003*[#  24]+0.002*[#  30]+0.002*[#   9]+0.002*[#  21]
          +0.002*[#  42]+0.001*[#   4]+0.001*[#  16]+0.001*[#  25]+0.001*[#  37]
          
    |psi|^2 = 0.527
==== e(  46) =    13.61508 eV ==== 
     psi = 0.175*[#  33]+0.174*[#  12]+0.069*[#  11]+0.063*[#  32]+0.005*[#   9]
          +0.005*[#  30]+0.005*[#  21]+0.005*[#  42]+0.003*[#  16]+0.003*[#  37]
          +0.003*[#   4]+0.003*[#  25]+0.002*[#   8]+0.002*[#  20]+0.002*[#  29]
          +0.002*[#  41]+0.001*[#   3]+0.001*[#  17]+0.001*[#  24]+0.001*[#  38]
          
    |psi|^2 = 0.526
==== e(  47) =    14.87020 eV ==== 
     psi = 0.034*[#   1]+0.034*[#  22]+0.028*[#  10]+0.028*[#  31]+0.017*[#   6]
          +0.017*[#  27]+0.007*[#  13]+0.007*[#  34]+0.004*[#  19]+0.004*[#  40]
          
    |psi|^2 = 0.179
==== e(  48) =    15.16453 eV ==== 
     psi = 0.032*[#   6]+0.032*[#  27]+0.015*[#   1]+0.015*[#  22]+0.011*[#   2]
          +0.011*[#  23]+0.009*[#  10]+0.009*[#  31]+0.007*[#  13]+0.007*[#  34]
          +0.005*[#  19]+0.005*[#  40]+0.001*[#  18]+0.001*[#  39]
    |psi|^2 = 0.159
==== e(  49) =    15.39732 eV ==== 
     psi = 0.014*[#  12]+0.013*[#  33]+0.006*[#  15]+0.006*[#  36]+0.004*[#  11]
          +0.004*[#  32]+0.004*[#   4]+0.004*[#  25]+0.002*[#  14]+0.002*[#  35]
          +0.001*[#  21]+0.001*[#  42]+0.001*[#   3]+0.001*[#  24]
    |psi|^2 = 0.063
==== e(  50) =    15.39918 eV ==== 
     psi = 0.013*[#  32]+0.013*[#  11]+0.006*[#  14]+0.006*[#  35]+0.004*[#  12]
          +0.004*[#  33]+0.004*[#   3]+0.004*[#  24]+0.002*[#  15]+0.002*[#  36]
          +0.001*[#  20]+0.001*[#  41]+0.001*[#   4]+0.001*[#  25]
    |psi|^2 = 0.063
==== e(  51) =    15.89519 eV ==== 
     psi = 0.023*[#  10]+0.023*[#  31]+0.008*[#  18]+0.008*[#  39]+0.002*[#   1]
          +0.002*[#  22]
    |psi|^2 = 0.071
==== e(  52) =    16.27251 eV ==== 
     psi = 0.004*[#  14]+0.004*[#  35]+0.003*[#  11]+0.003*[#  32]+0.003*[#  20]
          +0.003*[#  41]+0.002*[#  15]+0.002*[#  36]+0.002*[#  12]+0.002*[#  33]
          +0.002*[#  21]+0.002*[#  42]+0.001*[#   3]+0.001*[#  24]
    |psi|^2 = 0.035
==== e(  53) =    16.27462 eV ==== 
     psi = 0.004*[#  15]+0.004*[#  36]+0.003*[#  12]+0.003*[#  33]+0.002*[#  21]
          +0.002*[#  42]+0.002*[#  14]+0.002*[#  35]+0.002*[#  11]+0.002*[#  32]
          +0.002*[#  20]+0.002*[#  41]+0.001*[#   4]+0.001*[#  25]
    |psi|^2 = 0.035
==== e(  54) =    16.65847 eV ==== 
     psi = 0.007*[#  10]+0.007*[#  31]+0.004*[#  18]+0.004*[#  39]
    |psi|^2 = 0.029
==== e(  55) =    17.96244 eV ==== 
     psi = 0.008*[#  14]+0.008*[#  35]+0.003*[#  17]+0.003*[#  38]+0.001*[#  15]
          +0.001*[#  36]
    |psi|^2 = 0.027
==== e(  56) =    17.96694 eV ==== 
     psi = 0.008*[#  15]+0.008*[#  36]+0.003*[#  16]+0.003*[#  37]+0.001*[#  14]
          +0.001*[#  35]
    |psi|^2 = 0.027
==== e(  57) =    18.07611 eV ==== 
     psi = 0.005*[#  10]+0.005*[#  31]+0.002*[#  18]+0.002*[#  39]+0.002*[#   1]
          +0.002*[#  22]
    |psi|^2 = 0.019
==== e(  58) =    18.89514 eV ==== 
     psi = 0.004*[#  10]+0.004*[#  31]+0.003*[#   2]+0.003*[#  23]+0.002*[#   1]
          +0.002*[#  22]+0.001*[#   6]+0.001*[#  27]
    |psi|^2 = 0.021
==== e(  59) =    18.94329 eV ==== 
     psi = 0.009*[#  10]+0.009*[#  31]+0.005*[#  18]+0.005*[#  39]+0.002*[#   6]
          +0.002*[#  27]+0.001*[#   2]+0.001*[#  23]
    |psi|^2 = 0.035
==== e(  60) =    19.00180 eV ==== 
     psi = 0.007*[#  12]+0.007*[#  33]+0.005*[#  16]+0.005*[#  37]+0.002*[#  15]
          +0.002*[#  36]
    |psi|^2 = 0.031

 k =   0.0000000000  0.0192450090  0.0822700910
==== e(   1) =   -51.50952 eV ==== 
     psi = 0.958*[#  26]+0.015*[#  27]+0.010*[#  23]+0.010*[#  40]+0.002*[#  34]
          +0.002*[#  22]+0.002*[#  33]+0.002*[#  39]
    |psi|^2 = 1.000
==== e(   2) =   -51.50916 eV ==== 
     psi = 0.958*[#   5]+0.015*[#   6]+0.010*[#   2]+0.010*[#  19]+0.002*[#  13]
          +0.002*[#   1]+0.002*[#  12]+0.002*[#  18]
    |psi|^2 = 1.000
==== e(   3) =   -27.73377 eV ==== 
     psi = 0.778*[#  28]+0.190*[#   7]+0.010*[#  31]+0.005*[#  22]+0.005*[#  39]
          +0.003*[#  40]+0.003*[#  23]+0.003*[#  10]+0.001*[#   1]+0.001*[#  18]
          
    |psi|^2 = 1.000
==== e(   4) =   -27.73321 eV ==== 
     psi = 0.778*[#   7]+0.190*[#  28]+0.008*[#  10]+0.005*[#   1]+0.005*[#  18]
          +0.004*[#   2]+0.003*[#  19]+0.002*[#  31]+0.001*[#  22]+0.001*[#  39]
          
    |psi|^2 = 1.000
==== e(   5) =   -27.51050 eV ==== 
     psi = 0.964*[#  30]+0.026*[#  33]+0.006*[#  29]+0.002*[#  25]+0.002*[#  42]
          
    |psi|^2 = 1.000
==== e(   6) =   -27.51001 eV ==== 
     psi = 0.960*[#   9]+0.026*[#  12]+0.009*[#   8]+0.002*[#   4]+0.002*[#  21]
          
    |psi|^2 = 1.000
==== e(   7) =   -27.50930 eV ==== 
     psi = 0.954*[#  29]+0.026*[#  32]+0.010*[#   8]+0.006*[#  30]+0.002*[#  24]
          +0.002*[#  41]
    |psi|^2 = 1.000
==== e(   8) =   -27.50909 eV ==== 
     psi = 0.951*[#   8]+0.026*[#  11]+0.010*[#  29]+0.009*[#   9]+0.002*[#   3]
          +0.002*[#  20]
    |psi|^2 = 1.000
==== e(   9) =   -10.76857 eV ==== 
     psi = 0.208*[#  22]+0.208*[#   1]+0.176*[#  27]+0.176*[#   6]+0.079*[#  18]
          +0.079*[#  39]+0.023*[#  10]+0.023*[#  31]+0.008*[#   5]+0.008*[#  26]
          +0.002*[#  19]+0.002*[#  40]+0.001*[#  12]+0.001*[#  33]
    |psi|^2 = 0.999
==== e(  10) =   -10.34499 eV ==== 
     psi = 0.177*[#   6]+0.177*[#  27]+0.155*[#  18]+0.155*[#  39]+0.138*[#   1]
          +0.137*[#  22]+0.010*[#   5]+0.010*[#  26]+0.010*[#   2]+0.010*[#  23]
          +0.004*[#  10]+0.004*[#  31]+0.004*[#  19]+0.004*[#  40]+0.001*[#  12]
          +0.001*[#  33]
    |psi|^2 = 0.999
==== e(  11) =    -9.33380 eV ==== 
     psi = 0.222*[#  39]+0.222*[#  18]+0.180*[#  31]+0.180*[#  10]+0.069*[#  22]
          +0.068*[#   1]+0.014*[#   6]+0.014*[#  27]+0.011*[#   7]+0.011*[#  28]
          +0.002*[#   2]+0.002*[#  23]
    |psi|^2 = 0.999
==== e(  12) =    -8.88520 eV ==== 
     psi = 0.182*[#   1]+0.182*[#  22]+0.159*[#  10]+0.159*[#  31]+0.144*[#  18]
          +0.144*[#  39]+0.012*[#   7]+0.012*[#  28]+0.002*[#   2]+0.002*[#  23]
          
    |psi|^2 = 0.999
==== e(  13) =    -2.64853 eV ==== 
     psi = 0.232*[#   2]+0.232*[#  23]+0.121*[#  13]+0.121*[#  34]+0.093*[#  19]
          +0.093*[#  40]+0.022*[#  18]+0.022*[#  39]+0.015*[#   6]+0.015*[#  27]
          +0.010*[#   5]+0.010*[#  26]+0.003*[#   1]+0.003*[#  22]
    |psi|^2 = 0.991
==== e(  14) =    -1.65159 eV ==== 
     psi = 0.173*[#  19]+0.173*[#  40]+0.170*[#  13]+0.170*[#  34]+0.079*[#   2]
          +0.079*[#  23]+0.031*[#   1]+0.031*[#  22]+0.014*[#   6]+0.014*[#  27]
          +0.014*[#  18]+0.014*[#  39]+0.009*[#   5]+0.009*[#  26]+0.001*[#  10]
          +0.001*[#  31]
    |psi|^2 = 0.986
==== e(  15) =     0.71340 eV ==== 
     psi = 0.279*[#  16]+0.275*[#  37]+0.139*[#   4]+0.138*[#  25]+0.076*[#  21]
          +0.075*[#  42]+0.002*[#  12]+0.002*[#  15]+0.002*[#  33]+0.002*[#  36]
          
    |psi|^2 = 0.991
==== e(  16) =     0.72785 eV ==== 
     psi = 0.281*[#  38]+0.273*[#  17]+0.141*[#  24]+0.137*[#   3]+0.076*[#  41]
          +0.074*[#  20]+0.002*[#  11]+0.002*[#  32]+0.002*[#  14]+0.002*[#  35]
          
    |psi|^2 = 0.991
==== e(  17) =     0.76804 eV ==== 
     psi = 0.288*[#  37]+0.284*[#  16]+0.121*[#  25]+0.120*[#   4]+0.084*[#  42]
          +0.083*[#  21]+0.002*[#  12]+0.002*[#  33]+0.001*[#  15]+0.001*[#  36]
          
    |psi|^2 = 0.990
==== e(  18) =     0.78265 eV ==== 
     psi = 0.291*[#  17]+0.283*[#  38]+0.122*[#   3]+0.119*[#  24]+0.086*[#  20]
          +0.083*[#  41]+0.002*[#  11]+0.002*[#  32]
    |psi|^2 = 0.990
==== e(  19) =     1.09823 eV ==== 
     psi = 0.253*[#  19]+0.253*[#  40]+0.191*[#   2]+0.191*[#  23]+0.020*[#  13]
          +0.020*[#  34]+0.009*[#   1]+0.009*[#  22]+0.007*[#  10]+0.007*[#  31]
          +0.006*[#  15]+0.006*[#  36]+0.004*[#  21]+0.004*[#  42]+0.004*[#   7]
          +0.004*[#  28]+0.001*[#   4]+0.001*[#  25]
    |psi|^2 = 0.992
==== e(  20) =     1.84982 eV ==== 
     psi = 0.214*[#  36]+0.198*[#  15]+0.163*[#  42]+0.152*[#  21]+0.122*[#  25]
          +0.113*[#   4]+0.005*[#  37]+0.005*[#  16]+0.004*[#  19]+0.003*[#  40]
          +0.003*[#   2]+0.003*[#  23]+0.001*[#  35]
    |psi|^2 = 0.988
==== e(  21) =     1.86075 eV ==== 
     psi = 0.221*[#  14]+0.197*[#  35]+0.169*[#  20]+0.151*[#  41]+0.126*[#   3]
          +0.112*[#  24]+0.005*[#  17]+0.005*[#  38]+0.001*[#  15]
    |psi|^2 = 0.988
==== e(  22) =     1.89034 eV ==== 
     psi = 0.231*[#  35]+0.209*[#  14]+0.158*[#  41]+0.142*[#  20]+0.128*[#  24]
          +0.115*[#   3]+0.002*[#  38]+0.002*[#  17]
    |psi|^2 = 0.987
==== e(  23) =     1.90432 eV ==== 
     psi = 0.220*[#  15]+0.206*[#  36]+0.153*[#  21]+0.142*[#  42]+0.125*[#   4]
          +0.116*[#  25]+0.005*[#  40]+0.005*[#  23]+0.005*[#  19]+0.005*[#   2]
          +0.002*[#  16]+0.002*[#  37]
    |psi|^2 = 0.987
==== e(  24) =     2.54640 eV ==== 
     psi = 0.271*[#  19]+0.271*[#  40]+0.158*[#   2]+0.158*[#  23]+0.048*[#  13]
          +0.048*[#  34]+0.003*[#  21]+0.003*[#  42]+0.003*[#   7]+0.003*[#  10]
          +0.003*[#  28]+0.003*[#  31]+0.003*[#   4]+0.003*[#  25]+0.002*[#  15]
          +0.002*[#  36]+0.001*[#   1]+0.001*[#  22]
    |psi|^2 = 0.988
==== e(  25) =     3.83513 eV ==== 
     psi = 0.325*[#  34]+0.325*[#  13]+0.113*[#  19]+0.113*[#  40]+0.041*[#   2]
          +0.041*[#  23]+0.001*[#  18]+0.001*[#  39]+0.001*[#   1]+0.001*[#  22]
          
    |psi|^2 = 0.967
==== e(  26) =     4.71119 eV ==== 
     psi = 0.258*[#  13]+0.258*[#  34]+0.177*[#   2]+0.177*[#  23]+0.024*[#   1]
          +0.024*[#  22]+0.014*[#  19]+0.014*[#  40]+0.005*[#   6]+0.005*[#  27]
          +0.004*[#  10]+0.004*[#  31]+0.004*[#  18]+0.004*[#  39]+0.002*[#  16]
          +0.002*[#  37]+0.002*[#   4]+0.002*[#  25]
    |psi|^2 = 0.984
==== e(  27) =     6.04124 eV ==== 
     psi = 0.209*[#  35]+0.207*[#  14]+0.177*[#   3]+0.175*[#  24]+0.035*[#  17]
          +0.034*[#  38]+0.020*[#  15]+0.019*[#  41]+0.019*[#  36]+0.018*[#  20]
          +0.016*[#   4]+0.015*[#  25]+0.003*[#  16]+0.003*[#  37]+0.002*[#  21]
          +0.002*[#  42]
    |psi|^2 = 0.957
==== e(  28) =     6.04383 eV ==== 
     psi = 0.214*[#  15]+0.213*[#  36]+0.168*[#  25]+0.167*[#   4]+0.030*[#  37]
          +0.028*[#  16]+0.024*[#  21]+0.023*[#  42]+0.020*[#  35]+0.019*[#  14]
          +0.016*[#  24]+0.016*[#   3]+0.003*[#  17]+0.003*[#  38]+0.002*[#   2]
          +0.002*[#  23]+0.002*[#  41]+0.002*[#  20]+0.001*[#  13]+0.001*[#  34]
          
    |psi|^2 = 0.956
==== e(  29) =     6.29307 eV ==== 
     psi = 0.223*[#  15]+0.222*[#  36]+0.203*[#  21]+0.195*[#  42]+0.029*[#  25]
          +0.027*[#  16]+0.027*[#   4]+0.024*[#  37]+0.001*[#  12]
    |psi|^2 = 0.958
==== e(  30) =     6.30679 eV ==== 
     psi = 0.223*[#  35]+0.221*[#  14]+0.206*[#  41]+0.196*[#  20]+0.029*[#   3]
          +0.028*[#  38]+0.027*[#  24]+0.024*[#  17]+0.001*[#  32]+0.001*[#  11]
          
    |psi|^2 = 0.959
==== e(  31) =     6.41442 eV ==== 
     psi = 0.229*[#  42]+0.217*[#  21]+0.174*[#  37]+0.167*[#  16]+0.049*[#  25]
          +0.048*[#   4]+0.037*[#  36]+0.034*[#  15]+0.007*[#  33]+0.007*[#  12]
          +0.001*[#  13]
    |psi|^2 = 0.980
==== e(  32) =     6.41871 eV ==== 
     psi = 0.236*[#  20]+0.223*[#  41]+0.169*[#  17]+0.163*[#  38]+0.044*[#  14]
          +0.043*[#  24]+0.043*[#   3]+0.039*[#  35]+0.007*[#  11]+0.007*[#  32]
          
    |psi|^2 = 0.980
==== e(  33) =     6.51220 eV ==== 
     psi = 0.216*[#   4]+0.212*[#  25]+0.175*[#  16]+0.170*[#  37]+0.056*[#  21]
          +0.053*[#  42]+0.037*[#  15]+0.037*[#  36]+0.010*[#  12]+0.009*[#  33]
          
    |psi|^2 = 0.979
==== e(  34) =     6.51978 eV ==== 
     psi = 0.218*[#  24]+0.215*[#   3]+0.174*[#  38]+0.170*[#  17]+0.055*[#  41]
          +0.053*[#  20]+0.038*[#  35]+0.037*[#  14]+0.010*[#  32]+0.010*[#  11]
          
    |psi|^2 = 0.980
==== e(  35) =     8.54689 eV ==== 
     psi = 0.239*[#  27]+0.235*[#   6]+0.082*[#  39]+0.080*[#  18]+0.061*[#  22]
          +0.060*[#   1]+0.013*[#  40]+0.013*[#  19]+0.010*[#  23]+0.010*[#   2]
          +0.005*[#  13]+0.005*[#  34]+0.003*[#  10]+0.003*[#  31]+0.002*[#  12]
          +0.002*[#  33]
    |psi|^2 = 0.824
==== e(  36) =     8.56875 eV ==== 
     psi = 0.203*[#   6]+0.198*[#  27]+0.069*[#  18]+0.067*[#  39]+0.032*[#   1]
          +0.031*[#  22]+0.030*[#   2]+0.030*[#  23]+0.010*[#  19]+0.010*[#  40]
          +0.006*[#  10]+0.006*[#  31]+0.002*[#  12]+0.002*[#  33]
    |psi|^2 = 0.699
==== e(  37) =     8.98632 eV ==== 
     psi = 0.030*[#   6]+0.030*[#  27]+0.029*[#  10]+0.029*[#  31]+0.020*[#   1]
          +0.020*[#  22]+0.007*[#   2]+0.007*[#  23]+0.005*[#  19]+0.005*[#  40]
          +0.003*[#  13]+0.003*[#  34]
    |psi|^2 = 0.188
==== e(  38) =     9.47012 eV ==== 
     psi = 0.032*[#  10]+0.032*[#  31]+0.017*[#   1]+0.017*[#  22]+0.007*[#  13]
          +0.007*[#  34]+0.005*[#  18]+0.005*[#  39]+0.002*[#   6]+0.002*[#  27]
          +0.002*[#  19]+0.002*[#  40]
    |psi|^2 = 0.131
==== e(  39) =    10.94209 eV ==== 
     psi = 0.144*[#  10]+0.144*[#  31]+0.059*[#  18]+0.059*[#  39]+0.017*[#   1]
          +0.017*[#  22]+0.005*[#  13]+0.005*[#  34]+0.002*[#   6]+0.002*[#  27]
          +0.001*[#  19]+0.001*[#  40]
    |psi|^2 = 0.457
==== e(  40) =    11.28901 eV ==== 
     psi = 0.080*[#  10]+0.081*[#  31]+0.030*[#  18]+0.030*[#  39]+0.017*[#   1]
          +0.018*[#  22]+0.002*[#  19]+0.002*[#  40]
    |psi|^2 = 0.262
==== e(  41) =    11.72466 eV ==== 
     psi = 0.188*[#  10]+0.187*[#  31]+0.085*[#   1]+0.085*[#  22]+0.056*[#  18]
          +0.056*[#  39]+0.007*[#   2]+0.007*[#  23]+0.004*[#  19]+0.004*[#  40]
          
    |psi|^2 = 0.681
==== e(  42) =    13.07887 eV ==== 
     psi = 0.015*[#   6]+0.015*[#  27]+0.012*[#  18]+0.012*[#  39]+0.009*[#  13]
          +0.009*[#  34]+0.006*[#  10]+0.006*[#  31]+0.001*[#   2]+0.001*[#  23]
          
    |psi|^2 = 0.090
==== e(  43) =    13.53405 eV ==== 
     psi = 0.286*[#  12]+0.282*[#  33]+0.008*[#   9]+0.008*[#  30]+0.004*[#   6]
          +0.004*[#  27]+0.004*[#  21]+0.004*[#  42]+0.003*[#   4]+0.003*[#  25]
          
    |psi|^2 = 0.611
==== e(  44) =    13.56799 eV ==== 
     psi = 0.293*[#  32]+0.285*[#  11]+0.008*[#  29]+0.008*[#   8]+0.004*[#  41]
          +0.004*[#  20]+0.003*[#   3]+0.003*[#  24]+0.001*[#  17]+0.001*[#  38]
          
    |psi|^2 = 0.611
==== e(  45) =    13.61064 eV ==== 
     psi = 0.238*[#  33]+0.234*[#  12]+0.007*[#  30]+0.007*[#   9]+0.007*[#  21]
          +0.007*[#  42]+0.004*[#   4]+0.004*[#  16]+0.004*[#  25]+0.004*[#  37]
          +0.002*[#   6]+0.002*[#  27]
    |psi|^2 = 0.522
==== e(  46) =    13.63210 eV ==== 
     psi = 0.247*[#  11]+0.239*[#  32]+0.007*[#   8]+0.007*[#  29]+0.007*[#  20]
          +0.007*[#  41]+0.004*[#   3]+0.004*[#  17]+0.004*[#  24]+0.004*[#  38]
          
    |psi|^2 = 0.531
==== e(  47) =    14.87758 eV ==== 
     psi = 0.034*[#   1]+0.034*[#  22]+0.027*[#  10]+0.027*[#  31]+0.016*[#   6]
          +0.016*[#  27]+0.007*[#  13]+0.007*[#  34]+0.004*[#  12]+0.004*[#  33]
          +0.004*[#  19]+0.004*[#  40]
    |psi|^2 = 0.183
==== e(  48) =    15.18081 eV ==== 
     psi = 0.030*[#   6]+0.030*[#  27]+0.014*[#   1]+0.014*[#  22]+0.011*[#   2]
          +0.011*[#  23]+0.008*[#  10]+0.008*[#  31]+0.007*[#  13]+0.007*[#  34]
          +0.005*[#  19]+0.005*[#  40]+0.003*[#  12]+0.003*[#  33]+0.001*[#  18]
          +0.001*[#  39]
    |psi|^2 = 0.160
==== e(  49) =    15.35283 eV ==== 
     psi = 0.017*[#  12]+0.017*[#  33]+0.007*[#  15]+0.007*[#  36]+0.005*[#   4]
          +0.005*[#  25]+0.002*[#  21]+0.002*[#  42]
    |psi|^2 = 0.065
==== e(  50) =    15.39551 eV ==== 
     psi = 0.018*[#  32]+0.017*[#  11]+0.007*[#  14]+0.007*[#  35]+0.005*[#   3]
          +0.005*[#  24]+0.002*[#  20]+0.002*[#  41]
    |psi|^2 = 0.063
==== e(  51) =    15.88878 eV ==== 
     psi = 0.022*[#  10]+0.022*[#  31]+0.008*[#  18]+0.008*[#  39]+0.002*[#   1]
          +0.002*[#  22]
    |psi|^2 = 0.068
==== e(  52) =    16.24721 eV ==== 
     psi = 0.006*[#  15]+0.006*[#  36]+0.005*[#  33]+0.005*[#  12]+0.004*[#  21]
          +0.004*[#  42]+0.002*[#   4]+0.002*[#  25]+0.001*[#  10]+0.001*[#  31]
          
    |psi|^2 = 0.038
==== e(  53) =    16.27393 eV ==== 
     psi = 0.006*[#  14]+0.006*[#  35]+0.005*[#  11]+0.005*[#  32]+0.004*[#  20]
          +0.004*[#  41]+0.002*[#   3]+0.002*[#  24]
    |psi|^2 = 0.035
==== e(  54) =    16.65848 eV ==== 
     psi = 0.007*[#  10]+0.007*[#  31]+0.004*[#  18]+0.004*[#  39]
    |psi|^2 = 0.030
==== e(  55) =    17.94903 eV ==== 
     psi = 0.009*[#  15]+0.009*[#  36]+0.003*[#  16]+0.003*[#  37]
    |psi|^2 = 0.027
==== e(  56) =    17.96986 eV ==== 
     psi = 0.009*[#  14]+0.009*[#  35]+0.004*[#  17]+0.004*[#  38]
    |psi|^2 = 0.027
==== e(  57) =    18.11378 eV ==== 
     psi = 0.005*[#  10]+0.005*[#  31]+0.002*[#  18]+0.002*[#  39]+0.002*[#   1]
          +0.002*[#  22]
    |psi|^2 = 0.019
==== e(  58) =    18.89221 eV ==== 
     psi = 0.006*[#  10]+0.006*[#  31]+0.003*[#  18]+0.003*[#  39]+0.003*[#  12]
          +0.003*[#  33]+0.002*[#  16]+0.002*[#  37]
    |psi|^2 = 0.035
==== e(  59) =    18.94076 eV ==== 
     psi = 0.004*[#  10]+0.004*[#  31]+0.003*[#   2]+0.003*[#  23]+0.002*[#   1]
          +0.002*[#  22]+0.001*[#   6]+0.001*[#  27]
    |psi|^2 = 0.022
==== e(  60) =    18.99448 eV ==== 
     psi = 0.008*[#  11]+0.008*[#  32]+0.006*[#  17]+0.006*[#  38]+0.002*[#  14]
          +0.002*[#  35]
    |psi|^2 = 0.032

 k =   0.0000000000  0.0384900179  0.0822700910
==== e(   1) =   -51.50916 eV ==== 
     psi = 0.955*[#  26]+0.013*[#  27]+0.010*[#  23]+0.009*[#  40]+0.006*[#  33]
          +0.002*[#  34]+0.002*[#  22]+0.002*[#  39]
    |psi|^2 = 1.000
==== e(   2) =   -51.50880 eV ==== 
     psi = 0.955*[#   5]+0.013*[#   6]+0.010*[#   2]+0.009*[#  19]+0.006*[#  12]
          +0.002*[#  13]+0.002*[#   1]+0.002*[#  18]
    |psi|^2 = 1.000
==== e(   3) =   -27.73297 eV ==== 
     psi = 0.783*[#  28]+0.185*[#   7]+0.009*[#  31]+0.005*[#  22]+0.005*[#  39]
          +0.003*[#  40]+0.003*[#  23]+0.003*[#  10]+0.001*[#   1]+0.001*[#  18]
          
    |psi|^2 = 1.000
==== e(   4) =   -27.73242 eV ==== 
     psi = 0.783*[#   7]+0.186*[#  28]+0.008*[#  10]+0.005*[#   1]+0.005*[#  18]
          +0.004*[#   2]+0.003*[#  19]+0.002*[#  31]+0.001*[#  22]+0.001*[#  39]
          
    |psi|^2 = 1.000
==== e(   5) =   -27.51427 eV ==== 
     psi = 0.970*[#  30]+0.024*[#  33]+0.002*[#  25]+0.002*[#  42]+0.001*[#  27]
          
    |psi|^2 = 1.000
==== e(   6) =   -27.51378 eV ==== 
     psi = 0.970*[#   9]+0.024*[#  12]+0.002*[#   4]+0.002*[#  21]+0.001*[#   6]
          
    |psi|^2 = 1.000
==== e(   7) =   -27.51013 eV ==== 
     psi = 0.964*[#  29]+0.026*[#  32]+0.006*[#   8]+0.002*[#  24]+0.002*[#  41]
          
    |psi|^2 = 1.000
==== e(   8) =   -27.50993 eV ==== 
     psi = 0.964*[#   8]+0.026*[#  11]+0.006*[#  29]+0.002*[#   3]+0.002*[#  20]
          
    |psi|^2 = 1.000
==== e(   9) =   -10.75721 eV ==== 
     psi = 0.208*[#  22]+0.208*[#   1]+0.173*[#  27]+0.173*[#   6]+0.079*[#  18]
          +0.079*[#  39]+0.023*[#  10]+0.023*[#  31]+0.008*[#   5]+0.008*[#  26]
          +0.005*[#  12]+0.005*[#  33]+0.002*[#  19]+0.002*[#  40]
    |psi|^2 = 0.999
==== e(  10) =   -10.33362 eV ==== 
     psi = 0.174*[#   6]+0.174*[#  27]+0.155*[#  18]+0.154*[#  39]+0.137*[#   1]
          +0.137*[#  22]+0.010*[#   5]+0.010*[#  26]+0.010*[#   2]+0.010*[#  23]
          +0.005*[#  12]+0.005*[#  33]+0.004*[#  10]+0.004*[#  31]+0.004*[#  19]
          +0.004*[#  40]
    |psi|^2 = 0.999
==== e(  11) =    -9.32917 eV ==== 
     psi = 0.222*[#  39]+0.222*[#  18]+0.179*[#  31]+0.179*[#  10]+0.069*[#  22]
          +0.069*[#   1]+0.014*[#   6]+0.014*[#  27]+0.011*[#   7]+0.011*[#  28]
          +0.002*[#   2]+0.002*[#  23]
    |psi|^2 = 0.999
==== e(  12) =    -8.88278 eV ==== 
     psi = 0.182*[#   1]+0.182*[#  22]+0.158*[#  10]+0.158*[#  31]+0.144*[#  18]
          +0.144*[#  39]+0.012*[#   7]+0.012*[#  28]+0.002*[#   2]+0.002*[#  23]
          
    |psi|^2 = 0.999
==== e(  13) =    -2.63570 eV ==== 
     psi = 0.232*[#   2]+0.232*[#  23]+0.120*[#  13]+0.120*[#  34]+0.093*[#  19]
          +0.093*[#  40]+0.021*[#  18]+0.021*[#  39]+0.014*[#   6]+0.014*[#  27]
          +0.010*[#   5]+0.010*[#  26]+0.003*[#   1]+0.003*[#  22]
    |psi|^2 = 0.991
==== e(  14) =    -1.63870 eV ==== 
     psi = 0.173*[#  19]+0.173*[#  40]+0.169*[#  13]+0.169*[#  34]+0.079*[#   2]
          +0.079*[#  23]+0.031*[#   1]+0.031*[#  22]+0.014*[#   6]+0.014*[#  27]
          +0.014*[#  18]+0.014*[#  39]+0.009*[#   5]+0.009*[#  26]+0.002*[#  10]
          +0.002*[#  31]
    |psi|^2 = 0.986
==== e(  15) =     0.68083 eV ==== 
     psi = 0.276*[#  16]+0.272*[#  37]+0.140*[#   4]+0.138*[#  25]+0.076*[#  21]
          +0.075*[#  42]+0.002*[#   6]+0.002*[#  27]+0.002*[#  15]+0.002*[#  12]
          +0.002*[#  33]+0.002*[#  36]
    |psi|^2 = 0.991
==== e(  16) =     0.73719 eV ==== 
     psi = 0.275*[#  37]+0.272*[#  16]+0.119*[#  25]+0.117*[#   4]+0.080*[#  42]
          +0.079*[#  21]+0.009*[#  38]+0.008*[#  17]+0.005*[#  24]+0.004*[#   3]
          +0.003*[#  41]+0.002*[#  20]+0.002*[#   6]+0.002*[#  27]+0.002*[#  12]
          +0.002*[#  33]+0.001*[#  15]+0.001*[#  19]+0.001*[#  36]+0.001*[#  40]
          
    |psi|^2 = 0.990
==== e(  17) =     0.73839 eV ==== 
     psi = 0.270*[#  38]+0.264*[#  17]+0.138*[#  24]+0.134*[#   3]+0.073*[#  41]
          +0.072*[#  20]+0.009*[#  16]+0.009*[#  37]+0.004*[#   4]+0.004*[#  25]
          +0.003*[#  21]+0.003*[#  42]+0.002*[#  11]+0.002*[#  32]+0.002*[#  14]
          +0.002*[#  35]
    |psi|^2 = 0.991
==== e(  18) =     0.79469 eV ==== 
     psi = 0.290*[#  17]+0.282*[#  38]+0.123*[#   3]+0.120*[#  24]+0.086*[#  20]
          +0.083*[#  41]+0.002*[#  11]+0.002*[#  32]
    |psi|^2 = 0.990
==== e(  19) =     1.05839 eV ==== 
     psi = 0.240*[#  40]+0.239*[#  19]+0.178*[#  23]+0.178*[#   2]+0.020*[#  36]
          +0.020*[#  15]+0.019*[#  13]+0.019*[#  34]+0.013*[#  21]+0.013*[#  42]
          +0.009*[#   1]+0.009*[#  22]+0.007*[#  10]+0.007*[#  31]+0.004*[#   4]
          +0.004*[#  25]+0.003*[#   7]+0.003*[#  28]+0.002*[#  16]+0.002*[#  37]
          
    |psi|^2 = 0.992
==== e(  20) =     1.79957 eV ==== 
     psi = 0.203*[#  36]+0.197*[#  15]+0.154*[#  42]+0.149*[#  21]+0.114*[#  25]
          +0.111*[#   4]+0.011*[#  19]+0.011*[#  40]+0.009*[#   2]+0.009*[#  23]
          +0.005*[#  16]+0.005*[#  37]+0.002*[#  13]+0.003*[#  34]+0.002*[#  10]
          +0.002*[#  31]
    |psi|^2 = 0.989
==== e(  21) =     1.83801 eV ==== 
     psi = 0.219*[#  14]+0.200*[#  35]+0.168*[#  20]+0.154*[#  41]+0.124*[#   3]
          +0.113*[#  24]+0.005*[#  17]+0.005*[#  38]
    |psi|^2 = 0.988
==== e(  22) =     1.87333 eV ==== 
     psi = 0.229*[#  35]+0.210*[#  14]+0.158*[#  41]+0.144*[#  20]+0.126*[#  24]
          +0.116*[#   3]+0.002*[#  38]+0.002*[#  17]
    |psi|^2 = 0.988
==== e(  23) =     1.92622 eV ==== 
     psi = 0.198*[#  15]+0.192*[#  36]+0.143*[#  21]+0.139*[#  42]+0.119*[#   4]
          +0.116*[#  25]+0.018*[#  40]+0.018*[#  19]+0.017*[#  23]+0.017*[#   2]
          +0.002*[#  13]+0.002*[#  16]+0.002*[#  34]+0.001*[#  37]
    |psi|^2 = 0.987
==== e(  24) =     2.57240 eV ==== 
     psi = 0.263*[#  19]+0.262*[#  40]+0.152*[#   2]+0.152*[#  23]+0.046*[#  13]
          +0.046*[#  34]+0.011*[#  21]+0.011*[#  42]+0.009*[#   4]+0.009*[#  25]
          +0.005*[#  15]+0.005*[#  36]+0.003*[#   7]+0.003*[#  28]+0.002*[#  10]
          +0.002*[#  31]+0.001*[#   1]+0.001*[#  22]
    |psi|^2 = 0.988
==== e(  25) =     3.82880 eV ==== 
     psi = 0.324*[#  34]+0.324*[#  13]+0.111*[#  19]+0.111*[#  40]+0.041*[#   2]
          +0.041*[#  23]+0.001*[#  12]+0.001*[#  33]+0.001*[#  16]+0.001*[#  18]
          +0.001*[#  21]+0.001*[#  37]+0.001*[#  39]+0.001*[#  42]+0.001*[#   1]
          +0.001*[#  22]
    |psi|^2 = 0.968
==== e(  26) =     4.66715 eV ==== 
     psi = 0.253*[#  13]+0.252*[#  34]+0.169*[#   2]+0.169*[#  23]+0.024*[#   1]
          +0.024*[#  22]+0.014*[#  19]+0.014*[#  40]+0.008*[#  16]+0.008*[#  37]
          +0.008*[#   4]+0.008*[#  25]+0.005*[#   6]+0.005*[#  27]+0.004*[#  10]
          +0.004*[#  31]+0.003*[#  18]+0.003*[#  39]+0.002*[#  15]+0.002*[#  36]
          
    |psi|^2 = 0.984
==== e(  27) =     6.05886 eV ==== 
     psi = 0.123*[#  15]+0.119*[#  36]+0.109*[#  14]+0.108*[#  35]+0.100*[#   3]
          +0.098*[#  24]+0.084*[#   4]+0.083*[#  25]+0.023*[#  17]+0.022*[#  38]
          +0.017*[#  21]+0.015*[#  42]+0.012*[#  37]+0.012*[#  16]+0.008*[#  41]
          +0.008*[#  20]+0.004*[#   2]+0.004*[#  23]+0.002*[#  13]+0.002*[#  34]
          
    |psi|^2 = 0.956
==== e(  28) =     6.06035 eV ==== 
     psi = 0.120*[#  36]+0.120*[#  15]+0.112*[#  35]+0.109*[#  14]+0.100*[#  24]
          +0.099*[#   3]+0.083*[#  25]+0.081*[#   4]+0.023*[#  17]+0.022*[#  38]
          +0.017*[#  21]+0.016*[#  42]+0.012*[#  37]+0.011*[#  16]+0.009*[#  41]
          +0.008*[#  20]+0.004*[#   2]+0.004*[#  23]+0.002*[#  13]+0.002*[#  34]
          
    |psi|^2 = 0.956
==== e(  29) =     6.27787 eV ==== 
     psi = 0.221*[#  36]+0.221*[#  15]+0.203*[#  21]+0.195*[#  42]+0.031*[#  16]
          +0.027*[#  37]+0.025*[#  25]+0.023*[#   4]+0.002*[#  18]+0.002*[#  39]
          
    |psi|^2 = 0.958
==== e(  30) =     6.32660 eV ==== 
     psi = 0.222*[#  41]+0.212*[#  35]+0.207*[#  14]+0.206*[#  20]+0.039*[#  38]
          +0.033*[#  17]+0.020*[#   3]+0.017*[#  24]+0.002*[#  32]+0.001*[#  11]
          
    |psi|^2 = 0.960
==== e(  31) =     6.39660 eV ==== 
     psi = 0.207*[#  42]+0.196*[#  21]+0.177*[#  37]+0.169*[#  16]+0.067*[#  25]
          +0.065*[#   4]+0.032*[#  36]+0.030*[#  15]+0.007*[#  33]+0.006*[#  12]
          +0.004*[#  13]+0.004*[#  34]+0.003*[#   2]+0.003*[#  23]+0.001*[#  10]
          +0.001*[#  31]
    |psi|^2 = 0.978
==== e(  32) =     6.41035 eV ==== 
     psi = 0.238*[#  20]+0.220*[#  41]+0.163*[#  17]+0.156*[#  38]+0.056*[#  14]
          +0.049*[#  35]+0.041*[#  24]+0.041*[#   3]+0.007*[#  11]+0.007*[#  32]
          
    |psi|^2 = 0.978
==== e(  33) =     6.48882 eV ==== 
     psi = 0.207*[#   4]+0.202*[#  25]+0.174*[#  16]+0.169*[#  37]+0.060*[#  21]
          +0.058*[#  42]+0.039*[#  15]+0.039*[#  36]+0.008*[#  12]+0.008*[#  33]
          +0.002*[#   1]+0.002*[#  22]+0.001*[#  13]+0.001*[#   6]+0.001*[#  27]
          +0.001*[#  34]+0.001*[#   2]+0.001*[#  23]
    |psi|^2 = 0.978
==== e(  34) =     6.51954 eV ==== 
     psi = 0.222*[#  24]+0.219*[#   3]+0.167*[#  38]+0.164*[#  17]+0.048*[#  35]
          +0.048*[#  14]+0.047*[#  41]+0.045*[#  20]+0.010*[#  32]+0.009*[#  11]
          
    |psi|^2 = 0.979
==== e(  35) =     8.60543 eV ==== 
     psi = 0.233*[#  27]+0.225*[#   6]+0.082*[#  39]+0.080*[#  18]+0.060*[#  22]
          +0.059*[#   1]+0.013*[#  40]+0.012*[#  19]+0.010*[#  23]+0.010*[#   2]
          +0.008*[#  33]+0.008*[#  12]+0.005*[#  13]+0.005*[#  34]+0.003*[#  31]
          +0.003*[#  10]+0.002*[#  21]+0.002*[#  42]+0.002*[#   4]+0.002*[#  25]
          
    |psi|^2 = 0.823
==== e(  36) =     8.61773 eV ==== 
     psi = 0.191*[#   6]+0.183*[#  27]+0.069*[#  18]+0.067*[#  39]+0.031*[#   1]
          +0.029*[#  22]+0.029*[#   2]+0.028*[#  23]+0.009*[#  19]+0.009*[#  40]
          +0.008*[#  12]+0.008*[#  33]+0.007*[#  10]+0.007*[#  31]+0.001*[#  21]
          +0.001*[#  42]
    |psi|^2 = 0.681
==== e(  37) =     9.01244 eV ==== 
     psi = 0.036*[#   6]+0.035*[#  27]+0.028*[#  10]+0.028*[#  31]+0.022*[#   1]
          +0.022*[#  22]+0.008*[#   2]+0.008*[#  23]+0.005*[#  19]+0.005*[#  40]
          +0.003*[#  13]+0.003*[#  34]+0.001*[#  12]+0.001*[#  33]
    |psi|^2 = 0.206
==== e(  38) =     9.49110 eV ==== 
     psi = 0.032*[#  10]+0.032*[#  31]+0.017*[#   1]+0.017*[#  22]+0.007*[#  13]
          +0.007*[#  34]+0.005*[#  18]+0.005*[#  39]+0.002*[#   6]+0.002*[#  27]
          +0.002*[#  19]+0.002*[#  40]
    |psi|^2 = 0.132
==== e(  39) =    10.96791 eV ==== 
     psi = 0.132*[#  10]+0.132*[#  31]+0.054*[#  18]+0.054*[#  39]+0.015*[#   1]
          +0.015*[#  22]+0.005*[#  13]+0.005*[#  34]+0.002*[#   6]+0.002*[#  27]
          +0.001*[#  19]+0.001*[#  21]+0.001*[#  40]+0.001*[#  42]
    |psi|^2 = 0.422
==== e(  40) =    11.33751 eV ==== 
     psi = 0.091*[#  10]+0.091*[#  31]+0.034*[#  18]+0.034*[#  39]+0.019*[#   1]
          +0.019*[#  22]+0.002*[#  19]+0.002*[#  40]+0.001*[#  21]+0.001*[#  42]
          
    |psi|^2 = 0.298
==== e(  41) =    11.77702 eV ==== 
     psi = 0.187*[#  10]+0.187*[#  31]+0.083*[#   1]+0.083*[#  22]+0.055*[#  18]
          +0.055*[#  39]+0.006*[#   2]+0.006*[#  23]+0.004*[#  19]+0.004*[#  40]
          +0.002*[#   4]+0.002*[#  25]+0.001*[#  21]+0.001*[#  42]
    |psi|^2 = 0.680
==== e(  42) =    13.08566 eV ==== 
     psi = 0.016*[#   6]+0.016*[#  27]+0.012*[#  18]+0.012*[#  39]+0.009*[#  13]
          +0.009*[#  34]+0.006*[#  10]+0.006*[#  31]+0.002*[#  12]+0.002*[#  33]
          +0.001*[#   2]+0.001*[#  23]
    |psi|^2 = 0.099
==== e(  43) =    13.46512 eV ==== 
     psi = 0.264*[#  12]+0.262*[#  33]+0.016*[#   6]+0.016*[#  27]+0.008*[#   9]
          +0.007*[#  30]+0.003*[#  21]+0.003*[#  42]+0.003*[#   4]+0.003*[#  25]
          +0.002*[#  10]+0.002*[#  31]+0.001*[#   5]+0.001*[#  26]
    |psi|^2 = 0.599
==== e(  44) =    13.58978 eV ==== 
     psi = 0.280*[#  32]+0.276*[#  11]+0.008*[#  29]+0.008*[#   8]+0.005*[#  12]
          +0.004*[#  20]+0.004*[#  33]+0.004*[#  41]+0.003*[#   3]+0.003*[#  24]
          +0.001*[#  17]+0.001*[#  38]
    |psi|^2 = 0.599
==== e(  45) =    13.59192 eV ==== 
     psi = 0.216*[#  33]+0.213*[#  12]+0.008*[#  27]+0.008*[#   6]+0.007*[#  21]
          +0.007*[#  42]+0.006*[#   9]+0.006*[#  30]+0.006*[#  32]+0.005*[#  11]
          +0.004*[#   4]+0.004*[#  25]+0.004*[#  16]+0.004*[#  37]
    |psi|^2 = 0.501
==== e(  46) =    13.68141 eV ==== 
     psi = 0.246*[#  11]+0.241*[#  32]+0.007*[#   8]+0.007*[#  29]+0.007*[#  20]
          +0.007*[#  41]+0.004*[#   3]+0.004*[#  24]+0.004*[#  17]+0.004*[#  38]
          
    |psi|^2 = 0.531
==== e(  47) =    14.89380 eV ==== 
     psi = 0.032*[#   1]+0.032*[#  22]+0.026*[#  10]+0.026*[#  31]+0.017*[#  12]
          +0.017*[#  33]+0.011*[#   6]+0.011*[#  27]+0.007*[#  13]+0.007*[#  34]
          +0.003*[#  19]+0.003*[#  40]
    |psi|^2 = 0.192
==== e(  48) =    15.22086 eV ==== 
     psi = 0.020*[#   6]+0.019*[#  27]+0.014*[#  33]+0.014*[#  12]+0.012*[#   1]
          +0.011*[#  22]+0.008*[#   2]+0.008*[#  23]+0.007*[#  10]+0.006*[#  31]
          +0.005*[#  13]+0.005*[#  34]+0.004*[#  19]+0.004*[#  40]+0.002*[#  15]
          +0.002*[#  36]+0.001*[#   4]+0.001*[#  25]+0.001*[#  18]+0.001*[#  39]
          
    |psi|^2 = 0.147
==== e(  49) =    15.23899 eV ==== 
     psi = 0.012*[#  12]+0.011*[#  33]+0.008*[#  27]+0.008*[#   6]+0.006*[#  15]
          +0.006*[#  36]+0.005*[#  22]+0.004*[#   1]+0.004*[#   4]+0.003*[#  25]
          +0.003*[#  31]+0.003*[#  10]+0.002*[#   2]+0.002*[#  23]+0.002*[#  34]
          +0.002*[#  13]+0.001*[#  21]+0.001*[#  40]+0.001*[#  42]+0.001*[#  19]
          
    |psi|^2 = 0.087
==== e(  50) =    15.38602 eV ==== 
     psi = 0.018*[#  32]+0.018*[#  11]+0.007*[#  14]+0.007*[#  35]+0.005*[#   3]
          +0.005*[#  24]+0.002*[#  20]+0.002*[#  41]
    |psi|^2 = 0.064
==== e(  51) =    15.85993 eV ==== 
     psi = 0.017*[#  10]+0.017*[#  31]+0.007*[#  18]+0.007*[#  39]+0.002*[#  12]
          +0.002*[#  33]+0.002*[#   1]+0.002*[#  22]
    |psi|^2 = 0.059
==== e(  52) =    16.18511 eV ==== 
     psi = 0.006*[#  10]+0.006*[#  31]+0.005*[#  15]+0.005*[#  36]+0.004*[#  33]
          +0.004*[#  12]+0.004*[#  21]+0.004*[#  42]+0.002*[#   4]+0.002*[#  25]
          +0.001*[#  18]+0.001*[#  39]
    |psi|^2 = 0.049
==== e(  53) =    16.27551 eV ==== 
     psi = 0.006*[#  14]+0.006*[#  35]+0.005*[#  11]+0.005*[#  32]+0.004*[#  20]
          +0.004*[#  41]+0.002*[#   3]+0.002*[#  24]
    |psi|^2 = 0.035
==== e(  54) =    16.65129 eV ==== 
     psi = 0.008*[#  10]+0.008*[#  31]+0.004*[#  18]+0.004*[#  39]+0.001*[#   1]
          +0.001*[#  22]
    |psi|^2 = 0.034
==== e(  55) =    17.89531 eV ==== 
     psi = 0.009*[#  15]+0.009*[#  36]+0.003*[#  16]+0.003*[#  37]
    |psi|^2 = 0.028
==== e(  56) =    17.98871 eV ==== 
     psi = 0.008*[#  14]+0.009*[#  35]+0.004*[#  17]+0.004*[#  38]+0.001*[#  11]
          +0.001*[#  32]
    |psi|^2 = 0.028
==== e(  57) =    18.22609 eV ==== 
     psi = 0.004*[#  10]+0.004*[#  31]+0.002*[#  18]+0.002*[#  39]+0.002*[#   1]
          +0.002*[#  22]
    |psi|^2 = 0.020
==== e(  58) =    18.82442 eV ==== 
     psi = 0.006*[#  10]+0.006*[#  31]+0.004*[#  12]+0.004*[#  33]+0.003*[#  18]
          +0.003*[#  39]+0.002*[#  16]+0.002*[#  37]+0.002*[#  15]+0.002*[#  36]
          
    |psi|^2 = 0.037
==== e(  59) =    18.96652 eV ==== 
     psi = 0.010*[#  11]+0.010*[#  32]+0.006*[#  17]+0.006*[#  38]+0.002*[#  14]
          +0.002*[#  35]
    |psi|^2 = 0.036
==== e(  60) =    19.06662 eV ==== 
     psi = 0.004*[#  10]+0.004*[#  31]+0.003*[#   2]+0.003*[#  23]+0.002*[#   1]
          +0.002*[#  22]+0.002*[#   6]+0.002*[#  27]
    |psi|^2 = 0.023

 k =   0.0000000000  0.0577350269  0.0822700910
==== e(   1) =   -51.50857 eV ==== 
     psi = 0.951*[#  26]+0.013*[#  33]+0.011*[#  27]+0.010*[#  23]+0.009*[#  40]
          +0.002*[#  34]+0.002*[#  22]+0.001*[#  39]
    |psi|^2 = 1.000
==== e(   2) =   -51.50821 eV ==== 
     psi = 0.951*[#   5]+0.013*[#  12]+0.011*[#   6]+0.010*[#   2]+0.009*[#  19]
          +0.002*[#  13]+0.002*[#   1]+0.001*[#  18]
    |psi|^2 = 1.000
==== e(   3) =   -27.73166 eV ==== 
     psi = 0.780*[#  28]+0.188*[#   7]+0.009*[#  31]+0.005*[#  22]+0.005*[#  39]
          +0.003*[#  40]+0.003*[#  23]+0.003*[#  10]+0.001*[#   1]+0.001*[#  18]
          
    |psi|^2 = 1.000
==== e(   4) =   -27.73111 eV ==== 
     psi = 0.780*[#   7]+0.189*[#  28]+0.008*[#  10]+0.005*[#   1]+0.005*[#  18]
          +0.003*[#   2]+0.003*[#  19]+0.002*[#  31]+0.001*[#  22]+0.001*[#  39]
          
    |psi|^2 = 1.000
==== e(   5) =   -27.52054 eV ==== 
     psi = 0.971*[#  30]+0.022*[#  33]+0.002*[#  27]+0.002*[#  25]+0.002*[#  42]
          
    |psi|^2 = 1.000
==== e(   6) =   -27.52005 eV ==== 
     psi = 0.971*[#   9]+0.022*[#  12]+0.002*[#   6]+0.002*[#   4]+0.002*[#  21]
          
    |psi|^2 = 1.000
==== e(   7) =   -27.51152 eV ==== 
     psi = 0.968*[#  29]+0.026*[#  32]+0.002*[#  24]+0.002*[#  41]+0.001*[#   8]
          
    |psi|^2 = 1.000
==== e(   8) =   -27.51131 eV ==== 
     psi = 0.968*[#   8]+0.026*[#  11]+0.002*[#   3]+0.002*[#  20]+0.001*[#  29]
          
    |psi|^2 = 1.000
==== e(   9) =   -10.73838 eV ==== 
     psi = 0.208*[#  22]+0.208*[#   1]+0.167*[#  27]+0.167*[#   6]+0.078*[#  18]
          +0.078*[#  39]+0.023*[#  10]+0.023*[#  31]+0.012*[#  12]+0.012*[#  33]
          +0.008*[#   5]+0.009*[#  26]+0.002*[#  19]+0.002*[#  40]
    |psi|^2 = 0.999
==== e(  10) =   -10.31478 eV ==== 
     psi = 0.168*[#   6]+0.168*[#  27]+0.154*[#  18]+0.154*[#  39]+0.137*[#   1]
          +0.136*[#  22]+0.011*[#  12]+0.011*[#  33]+0.011*[#   5]+0.011*[#  26]
          +0.010*[#   2]+0.010*[#  23]+0.004*[#  10]+0.004*[#  31]+0.004*[#  19]
          +0.004*[#  40]
    |psi|^2 = 0.999
==== e(  11) =    -9.32149 eV ==== 
     psi = 0.223*[#  39]+0.223*[#  18]+0.177*[#  31]+0.177*[#  10]+0.069*[#  22]
          +0.069*[#   1]+0.013*[#   6]+0.013*[#  27]+0.011*[#   7]+0.011*[#  28]
          +0.002*[#   2]+0.002*[#  23]+0.001*[#  15]+0.001*[#  36]
    |psi|^2 = 0.999
==== e(  12) =    -8.87876 eV ==== 
     psi = 0.183*[#   1]+0.182*[#  22]+0.156*[#  10]+0.156*[#  31]+0.145*[#  18]
          +0.145*[#  39]+0.011*[#   7]+0.011*[#  28]+0.002*[#  15]+0.002*[#  36]
          +0.002*[#   2]+0.002*[#  23]
    |psi|^2 = 0.999
==== e(  13) =    -2.61454 eV ==== 
     psi = 0.233*[#   2]+0.233*[#  23]+0.119*[#  13]+0.119*[#  34]+0.092*[#  19]
          +0.092*[#  40]+0.021*[#  18]+0.021*[#  39]+0.014*[#   6]+0.014*[#  27]
          +0.010*[#   5]+0.010*[#  26]+0.003*[#   1]+0.003*[#  22]
    |psi|^2 = 0.991
==== e(  14) =    -1.61746 eV ==== 
     psi = 0.174*[#  19]+0.174*[#  40]+0.168*[#  13]+0.168*[#  34]+0.080*[#   2]
          +0.080*[#  23]+0.031*[#   1]+0.031*[#  22]+0.014*[#   6]+0.014*[#  27]
          +0.014*[#  18]+0.014*[#  39]+0.009*[#   5]+0.009*[#  26]+0.002*[#  10]
          +0.002*[#  31]
    |psi|^2 = 0.986
==== e(  15) =     0.62769 eV ==== 
     psi = 0.270*[#  16]+0.267*[#  37]+0.142*[#   4]+0.140*[#  25]+0.075*[#  21]
          +0.074*[#  42]+0.004*[#   6]+0.004*[#  27]+0.002*[#  15]+0.002*[#  36]
          +0.002*[#  12]+0.002*[#  33]+0.001*[#   1]+0.001*[#  22]
    |psi|^2 = 0.991
==== e(  16) =     0.68748 eV ==== 
     psi = 0.278*[#  37]+0.275*[#  16]+0.124*[#  25]+0.122*[#   4]+0.081*[#  42]
          +0.080*[#  21]+0.004*[#   6]+0.004*[#  27]+0.003*[#  19]+0.003*[#  40]
          +0.002*[#   1]+0.002*[#  22]+0.002*[#  15]+0.002*[#  12]+0.002*[#  33]
          +0.002*[#  36]+0.001*[#  18]+0.001*[#  39]
    |psi|^2 = 0.990
==== e(  17) =     0.75565 eV ==== 
     psi = 0.276*[#  38]+0.269*[#  17]+0.145*[#  24]+0.142*[#   3]+0.075*[#  41]
          +0.073*[#  20]+0.003*[#  11]+0.003*[#  32]+0.002*[#  35]+0.002*[#  14]
          
    |psi|^2 = 0.991
==== e(  18) =     0.81462 eV ==== 
     psi = 0.287*[#  17]+0.280*[#  38]+0.124*[#   3]+0.121*[#  24]+0.086*[#  20]
          +0.084*[#  41]+0.003*[#  11]+0.003*[#  32]+0.001*[#  14]+0.001*[#  35]
          
    |psi|^2 = 0.990
==== e(  19) =     0.99771 eV ==== 
     psi = 0.222*[#  40]+0.222*[#  19]+0.162*[#  23]+0.161*[#   2]+0.039*[#  36]
          +0.039*[#  15]+0.026*[#  21]+0.026*[#  42]+0.018*[#  13]+0.018*[#  34]
          +0.008*[#  10]+0.008*[#  31]+0.008*[#   1]+0.008*[#  22]+0.007*[#  25]
          +0.007*[#   4]+0.005*[#  16]+0.005*[#  37]+0.003*[#   7]+0.003*[#  28]
          
    |psi|^2 = 0.992
==== e(  20) =     1.72527 eV ==== 
     psi = 0.195*[#  36]+0.193*[#  15]+0.146*[#  42]+0.144*[#  21]+0.109*[#  25]
          +0.107*[#   4]+0.018*[#  19]+0.018*[#  40]+0.016*[#   2]+0.016*[#  23]
          +0.004*[#  16]+0.004*[#  13]+0.004*[#  34]+0.004*[#  37]+0.003*[#  10]
          +0.003*[#  31]
    |psi|^2 = 0.989
==== e(  21) =     1.80209 eV ==== 
     psi = 0.217*[#  14]+0.202*[#  35]+0.168*[#  20]+0.157*[#  41]+0.121*[#   3]
          +0.112*[#  24]+0.006*[#  17]+0.006*[#  38]
    |psi|^2 = 0.988
==== e(  22) =     1.84466 eV ==== 
     psi = 0.227*[#  35]+0.212*[#  14]+0.158*[#  41]+0.147*[#  20]+0.124*[#  24]
          +0.116*[#   3]+0.002*[#  38]+0.002*[#  17]
    |psi|^2 = 0.988
==== e(  23) =     1.95545 eV ==== 
     psi = 0.172*[#  15]+0.169*[#  36]+0.134*[#  21]+0.133*[#  42]+0.115*[#   4]
          +0.114*[#  25]+0.035*[#  40]+0.034*[#  19]+0.034*[#  23]+0.033*[#   2]
          +0.003*[#  13]+0.003*[#  34]+0.001*[#  16]+0.001*[#  37]+0.001*[#   7]
          +0.001*[#  28]
    |psi|^2 = 0.987
==== e(  24) =     2.60674 eV ==== 
     psi = 0.253*[#  19]+0.253*[#  40]+0.146*[#   2]+0.146*[#  23]+0.043*[#  13]
          +0.043*[#  34]+0.021*[#  21]+0.021*[#  42]+0.016*[#   4]+0.016*[#  25]
          +0.007*[#  15]+0.007*[#  36]+0.003*[#   7]+0.003*[#  28]+0.002*[#  10]
          +0.002*[#  31]+0.001*[#   1]+0.001*[#  22]
    |psi|^2 = 0.987
==== e(  25) =     3.81761 eV ==== 
     psi = 0.323*[#  34]+0.323*[#  13]+0.109*[#  19]+0.109*[#  40]+0.040*[#   2]
          +0.040*[#  23]+0.003*[#  16]+0.003*[#  37]+0.003*[#  12]+0.003*[#  33]
          +0.003*[#  21]+0.003*[#  42]+0.001*[#  18]+0.001*[#  39]+0.001*[#   1]
          +0.001*[#  22]
    |psi|^2 = 0.970
==== e(  26) =     4.59813 eV ==== 
     psi = 0.245*[#  13]+0.245*[#  34]+0.158*[#   2]+0.158*[#  23]+0.023*[#   1]
          +0.023*[#  22]+0.017*[#  16]+0.017*[#  37]+0.015*[#   4]+0.015*[#  25]
          +0.014*[#  19]+0.014*[#  40]+0.005*[#   6]+0.005*[#  27]+0.004*[#  15]
          +0.004*[#  36]+0.004*[#  10]+0.004*[#  31]+0.003*[#  18]+0.003*[#  39]
          +0.002*[#  21]+0.002*[#  42]
    |psi|^2 = 0.985
==== e(  27) =     6.07956 eV ==== 
     psi = 0.251*[#  15]+0.247*[#  36]+0.136*[#  25]+0.136*[#   4]+0.047*[#  21]
          +0.044*[#  42]+0.013*[#   2]+0.013*[#  23]+0.013*[#  37]+0.012*[#  16]
          +0.007*[#  34]+0.007*[#  13]+0.004*[#  18]+0.004*[#  39]+0.004*[#   3]
          +0.003*[#  14]+0.003*[#  24]+0.003*[#  35]+0.001*[#  17]
    |psi|^2 = 0.953
==== e(  28) =     6.08610 eV ==== 
     psi = 0.206*[#   3]+0.205*[#  24]+0.199*[#  35]+0.197*[#  14]+0.060*[#  17]
          +0.058*[#  38]+0.009*[#  41]+0.009*[#  20]+0.004*[#  36]+0.004*[#  15]
          +0.002*[#  25]+0.002*[#   4]
    |psi|^2 = 0.959
==== e(  29) =     6.25472 eV ==== 
     psi = 0.216*[#  36]+0.213*[#  15]+0.202*[#  21]+0.197*[#  42]+0.037*[#  16]
          +0.034*[#  37]+0.018*[#  25]+0.016*[#   4]+0.005*[#  18]+0.005*[#  39]
          +0.002*[#  19]+0.002*[#  40]+0.002*[#  10]+0.002*[#   1]+0.002*[#  31]
          +0.002*[#  22]
    |psi|^2 = 0.958
==== e(  30) =     6.35390 eV ==== 
     psi = 0.251*[#  41]+0.222*[#  20]+0.179*[#  35]+0.168*[#  14]+0.069*[#  38]
          +0.057*[#  17]+0.004*[#   3]+0.003*[#  24]+0.003*[#  32]+0.003*[#  11]
          
    |psi|^2 = 0.963
==== e(  31) =     6.36492 eV ==== 
     psi = 0.177*[#  37]+0.169*[#  16]+0.161*[#  42]+0.151*[#  21]+0.102*[#  25]
          +0.099*[#   4]+0.031*[#  36]+0.030*[#  15]+0.008*[#  34]+0.008*[#  13]
          +0.006*[#  33]+0.005*[#  12]+0.005*[#  23]+0.005*[#   2]+0.002*[#  40]
          +0.002*[#  19]+0.002*[#   1]+0.002*[#  10]+0.002*[#  31]+0.002*[#  22]
          +0.002*[#  39]+0.001*[#  18]+0.001*[#   6]+0.001*[#  27]
    |psi|^2 = 0.974
==== e(  32) =     6.40238 eV ==== 
     psi = 0.243*[#  20]+0.212*[#  41]+0.147*[#  17]+0.133*[#  38]+0.087*[#  14]
          +0.073*[#  35]+0.035*[#   3]+0.034*[#  24]+0.007*[#  11]+0.006*[#  32]
          
    |psi|^2 = 0.976
==== e(  33) =     6.46151 eV ==== 
     psi = 0.187*[#   4]+0.181*[#  25]+0.173*[#  16]+0.167*[#  37]+0.073*[#  21]
          +0.071*[#  42]+0.038*[#  36]+0.038*[#  15]+0.006*[#  12]+0.006*[#  33]
          +0.006*[#  13]+0.006*[#  34]+0.005*[#   2]+0.005*[#  23]+0.003*[#   1]
          +0.003*[#  22]+0.002*[#   6]+0.002*[#  27]+0.001*[#  19]+0.001*[#  40]
          
    |psi|^2 = 0.976
==== e(  34) =     6.52186 eV ==== 
     psi = 0.230*[#  24]+0.227*[#   3]+0.148*[#  38]+0.145*[#  17]+0.075*[#  14]
          +0.074*[#  35]+0.030*[#  41]+0.029*[#  20]+0.009*[#  32]+0.008*[#  11]
          
    |psi|^2 = 0.977
==== e(  35) =     8.69414 eV ==== 
     psi = 0.172*[#  27]+0.156*[#   6]+0.070*[#  39]+0.064*[#  18]+0.028*[#  22]
          +0.026*[#  23]+0.025*[#   1]+0.025*[#   2]+0.017*[#  33]+0.015*[#  12]
          +0.009*[#  31]+0.009*[#  10]+0.008*[#  40]+0.007*[#  19]+0.003*[#  42]
          +0.003*[#  21]+0.002*[#  34]+0.001*[#  13]+0.001*[#  25]
    |psi|^2 = 0.643
==== e(  36) =     8.69939 eV ==== 
     psi = 0.224*[#   6]+0.208*[#  27]+0.084*[#  18]+0.078*[#  39]+0.059*[#   1]
          +0.056*[#  22]+0.017*[#  12]+0.016*[#  33]+0.012*[#  19]+0.012*[#  40]
          +0.011*[#   2]+0.009*[#  23]+0.006*[#  13]+0.005*[#  34]+0.004*[#  21]
          +0.004*[#  42]+0.004*[#  10]+0.003*[#   4]+0.003*[#  25]+0.003*[#  31]
          
    |psi|^2 = 0.819
==== e(  37) =     9.05900 eV ==== 
     psi = 0.047*[#   6]+0.047*[#  27]+0.025*[#   1]+0.025*[#  22]+0.025*[#  10]
          +0.025*[#  31]+0.010*[#   2]+0.010*[#  23]+0.006*[#  19]+0.006*[#  40]
          +0.004*[#  12]+0.004*[#  33]+0.003*[#  13]+0.003*[#  34]+0.001*[#  16]
          +0.001*[#  37]
    |psi|^2 = 0.245
==== e(  38) =     9.52629 eV ==== 
     psi = 0.031*[#  10]+0.031*[#  31]+0.018*[#   1]+0.018*[#  22]+0.006*[#  13]
          +0.006*[#  34]+0.004*[#   6]+0.004*[#  27]+0.004*[#  18]+0.004*[#  39]
          +0.002*[#  19]+0.002*[#  40]
    |psi|^2 = 0.136
==== e(  39) =    11.00631 eV ==== 
     psi = 0.116*[#  10]+0.116*[#  31]+0.046*[#  18]+0.046*[#  39]+0.012*[#   1]
          +0.012*[#  22]+0.005*[#  13]+0.005*[#  34]+0.002*[#  21]+0.002*[#  42]
          +0.002*[#   6]+0.002*[#  27]+0.001*[#  19]+0.001*[#  40]
    |psi|^2 = 0.372
==== e(  40) =    11.41968 eV ==== 
     psi = 0.105*[#  10]+0.106*[#  31]+0.038*[#  18]+0.038*[#  39]+0.020*[#   1]
          +0.020*[#  22]+0.003*[#  21]+0.003*[#  42]+0.002*[#  12]+0.002*[#  33]
          +0.002*[#  19]+0.002*[#  40]+0.002*[#   4]+0.002*[#  25]
    |psi|^2 = 0.347
==== e(  41) =    11.86051 eV ==== 
     psi = 0.186*[#  10]+0.186*[#  31]+0.081*[#   1]+0.081*[#  22]+0.053*[#  18]
          +0.053*[#  39]+0.006*[#   2]+0.006*[#  23]+0.004*[#  19]+0.004*[#  40]
          +0.004*[#   4]+0.004*[#  25]+0.002*[#  21]+0.002*[#  42]
    |psi|^2 = 0.677
==== e(  42) =    13.09010 eV ==== 
     psi = 0.020*[#   6]+0.020*[#  27]+0.012*[#  12]+0.012*[#  33]+0.011*[#  18]
          +0.011*[#  39]+0.008*[#  13]+0.008*[#  34]+0.007*[#  10]+0.007*[#  31]
          +0.002*[#   2]+0.002*[#  21]+0.001*[#  23]+0.002*[#  42]+0.001*[#  16]
          +0.001*[#  37]
    |psi|^2 = 0.129
==== e(  43) =    13.37386 eV ==== 
     psi = 0.228*[#  12]+0.227*[#  33]+0.031*[#   6]+0.031*[#  27]+0.006*[#   9]
          +0.006*[#  30]+0.004*[#  10]+0.004*[#  31]+0.003*[#   4]+0.003*[#  21]
          +0.003*[#  25]+0.003*[#  42]+0.002*[#   5]+0.002*[#  26]+0.002*[#   1]
          +0.002*[#  22]+0.002*[#   2]+0.002*[#  23]+0.001*[#  19]+0.001*[#  40]
          
    |psi|^2 = 0.571
==== e(  44) =    13.55881 eV ==== 
     psi = 0.194*[#  33]+0.193*[#  12]+0.015*[#  27]+0.015*[#   6]+0.007*[#  21]
          +0.007*[#  42]+0.006*[#   9]+0.006*[#  30]+0.003*[#   4]+0.003*[#  25]
          +0.003*[#  16]+0.003*[#  37]+0.002*[#   5]+0.002*[#  26]
    |psi|^2 = 0.462
==== e(  45) =    13.63260 eV ==== 
     psi = 0.281*[#  32]+0.277*[#  11]+0.008*[#  29]+0.008*[#   8]+0.005*[#  20]
          +0.005*[#  41]+0.003*[#   3]+0.003*[#  24]+0.002*[#  17]+0.002*[#  38]
          
    |psi|^2 = 0.593
==== e(  46) =    13.75600 eV ==== 
     psi = 0.242*[#  11]+0.238*[#  32]+0.007*[#   8]+0.007*[#  29]+0.007*[#  20]
          +0.007*[#  41]+0.004*[#   3]+0.004*[#  24]+0.003*[#  17]+0.003*[#  38]
          
    |psi|^2 = 0.524
==== e(  47) =    14.88151 eV ==== 
     psi = 0.042*[#  12]+0.042*[#  33]+0.021*[#   1]+0.021*[#  22]+0.016*[#  10]
          +0.016*[#  31]+0.005*[#  13]+0.005*[#  34]+0.003*[#   6]+0.003*[#  27]
          +0.002*[#  19]+0.002*[#  40]+0.001*[#  15]+0.001*[#  36]
    |psi|^2 = 0.184
==== e(  48) =    15.10229 eV ==== 
     psi = 0.013*[#   1]+0.013*[#  22]+0.012*[#  10]+0.012*[#  31]+0.009*[#   6]
          +0.009*[#  27]+0.006*[#  15]+0.006*[#  36]+0.004*[#   4]+0.004*[#  25]
          +0.003*[#  12]+0.003*[#  33]+0.002*[#  13]+0.002*[#  34]+0.002*[#  19]
          +0.002*[#  40]+0.001*[#  21]+0.001*[#  42]
    |psi|^2 = 0.105
==== e(  49) =    15.28344 eV ==== 
     psi = 0.020*[#  12]+0.020*[#  33]+0.017*[#   6]+0.017*[#  27]+0.013*[#   1]
          +0.013*[#  22]+0.009*[#   2]+0.009*[#  23]+0.007*[#  10]+0.007*[#  31]
          +0.006*[#  13]+0.007*[#  34]+0.004*[#  19]+0.004*[#  40]+0.001*[#  18]
          +0.001*[#  39]
    |psi|^2 = 0.160
==== e(  50) =    15.37186 eV ==== 
     psi = 0.020*[#  32]+0.020*[#  11]+0.007*[#  14]+0.007*[#  35]+0.004*[#   3]
          +0.004*[#  24]+0.002*[#  20]+0.002*[#  41]
    |psi|^2 = 0.066
==== e(  51) =    15.78441 eV ==== 
     psi = 0.008*[#  10]+0.008*[#  31]+0.005*[#  12]+0.005*[#  33]+0.005*[#  18]
          +0.005*[#  39]+0.002*[#  15]+0.002*[#  36]+0.001*[#   4]+0.001*[#  25]
          
    |psi|^2 = 0.049
==== e(  52) =    16.13143 eV ==== 
     psi = 0.015*[#  10]+0.015*[#  31]+0.004*[#  15]+0.004*[#  36]+0.004*[#  21]
          +0.004*[#  42]+0.003*[#  18]+0.003*[#  39]+0.003*[#  12]+0.003*[#  33]
          +0.002*[#   1]+0.002*[#  22]+0.001*[#   4]+0.001*[#  25]
    |psi|^2 = 0.067
==== e(  53) =    16.27813 eV ==== 
     psi = 0.006*[#  14]+0.006*[#  35]+0.005*[#  11]+0.005*[#  32]+0.004*[#  20]
          +0.004*[#  41]+0.002*[#   3]+0.002*[#  24]
    |psi|^2 = 0.035
==== e(  54) =    16.62533 eV ==== 
     psi = 0.009*[#  10]+0.009*[#  31]+0.004*[#  18]+0.004*[#  39]+0.002*[#  12]
          +0.002*[#  33]+0.001*[#   1]+0.001*[#  22]+0.001*[#   6]+0.001*[#  27]
          
    |psi|^2 = 0.041
==== e(  55) =    17.80947 eV ==== 
     psi = 0.009*[#  15]+0.009*[#  36]+0.003*[#  16]+0.003*[#  37]+0.001*[#  12]
          +0.001*[#  33]
    |psi|^2 = 0.030
==== e(  56) =    18.01585 eV ==== 
     psi = 0.008*[#  14]+0.008*[#  35]+0.004*[#  17]+0.004*[#  38]+0.002*[#  11]
          +0.002*[#  32]
    |psi|^2 = 0.031
==== e(  57) =    18.39735 eV ==== 
     psi = 0.004*[#  10]+0.004*[#  31]+0.002*[#  18]+0.002*[#  39]+0.001*[#   1]
          +0.001*[#  22]
    |psi|^2 = 0.021
==== e(  58) =    18.75924 eV ==== 
     psi = 0.005*[#  12]+0.005*[#  33]+0.005*[#  10]+0.005*[#  31]+0.002*[#  16]
          +0.002*[#  18]+0.002*[#  37]+0.002*[#  39]+0.002*[#  15]+0.002*[#  36]
          
    |psi|^2 = 0.038
==== e(  59) =    18.91882 eV ==== 
     psi = 0.013*[#  11]+0.013*[#  32]+0.006*[#  17]+0.006*[#  38]+0.001*[#  14]
          +0.001*[#  35]
    |psi|^2 = 0.042
==== e(  60) =    19.14628 eV ==== 
     psi = 0.007*[#  12]+0.007*[#  33]+0.004*[#  16]+0.004*[#  37]+0.003*[#   6]
          +0.003*[#  10]+0.003*[#  27]+0.003*[#  31]+0.001*[#  18]+0.001*[#  39]
          
    |psi|^2 = 0.039

 k =   0.0000000000  0.0769800359  0.0822700910
==== e(   1) =   -51.50774 eV ==== 
     psi = 0.945*[#  26]+0.022*[#  33]+0.010*[#  23]+0.009*[#  40]+0.009*[#  27]
          +0.002*[#  34]+0.001*[#  22]+0.001*[#  39]
    |psi|^2 = 1.000
==== e(   2) =   -51.50739 eV ==== 
     psi = 0.945*[#   5]+0.022*[#  12]+0.010*[#   2]+0.009*[#  19]+0.009*[#   6]
          +0.002*[#  13]+0.001*[#   1]+0.001*[#  18]
    |psi|^2 = 1.000
==== e(   3) =   -27.72984 eV ==== 
     psi = 0.793*[#  28]+0.176*[#   7]+0.009*[#  31]+0.005*[#  22]+0.005*[#  39]
          +0.003*[#  40]+0.003*[#  23]+0.002*[#  10]
    |psi|^2 = 1.000
==== e(   4) =   -27.72931 eV ==== 
     psi = 0.793*[#   7]+0.176*[#  28]+0.008*[#  10]+0.005*[#   1]+0.005*[#  18]
          +0.003*[#   2]+0.003*[#  19]+0.001*[#  22]+0.001*[#  31]+0.001*[#  39]
          
    |psi|^2 = 1.000
==== e(   5) =   -27.52917 eV ==== 
     psi = 0.973*[#  30]+0.018*[#  33]+0.004*[#  27]+0.002*[#  25]+0.002*[#  42]
          
    |psi|^2 = 1.000
==== e(   6) =   -27.52868 eV ==== 
     psi = 0.973*[#   9]+0.018*[#  12]+0.004*[#   6]+0.002*[#   4]+0.002*[#  21]
          
    |psi|^2 = 1.000
==== e(   7) =   -27.51342 eV ==== 
     psi = 0.968*[#  29]+0.026*[#  32]+0.002*[#   8]+0.002*[#  24]+0.002*[#  41]
          
    |psi|^2 = 1.000
==== e(   8) =   -27.51322 eV ==== 
     psi = 0.968*[#   8]+0.026*[#  11]+0.002*[#   3]+0.002*[#  29]+0.002*[#  20]
          
    |psi|^2 = 1.000
==== e(   9) =   -10.71220 eV ==== 
     psi = 0.208*[#  22]+0.208*[#   1]+0.160*[#  27]+0.159*[#   6]+0.076*[#  18]
          +0.076*[#  39]+0.023*[#  10]+0.023*[#  31]+0.020*[#  12]+0.020*[#  33]
          +0.009*[#   5]+0.009*[#  26]+0.002*[#  19]+0.002*[#  40]
    |psi|^2 = 0.999
==== e(  10) =   -10.28859 eV ==== 
     psi = 0.162*[#   6]+0.161*[#  27]+0.154*[#  18]+0.154*[#  39]+0.136*[#   1]
          +0.136*[#  22]+0.019*[#  12]+0.019*[#  33]+0.011*[#   5]+0.011*[#  26]
          +0.010*[#   2]+0.010*[#  23]+0.004*[#  10]+0.004*[#  31]+0.004*[#  19]
          +0.004*[#  40]
    |psi|^2 = 0.999
==== e(  11) =    -9.31079 eV ==== 
     psi = 0.225*[#  39]+0.224*[#  18]+0.175*[#  31]+0.175*[#  10]+0.069*[#  22]
          +0.069*[#   1]+0.013*[#   6]+0.013*[#  27]+0.010*[#   7]+0.010*[#  28]
          +0.003*[#  15]+0.003*[#  36]+0.002*[#   2]+0.002*[#  23]+0.001*[#  12]
          +0.001*[#  33]
    |psi|^2 = 0.999
==== e(  12) =    -8.87319 eV ==== 
     psi = 0.183*[#   1]+0.183*[#  22]+0.153*[#  10]+0.153*[#  31]+0.146*[#  18]
          +0.145*[#  39]+0.011*[#   7]+0.011*[#  28]+0.003*[#  15]+0.003*[#  36]
          +0.002*[#   2]+0.002*[#  23]
    |psi|^2 = 0.999
==== e(  13) =    -2.58543 eV ==== 
     psi = 0.234*[#   2]+0.234*[#  23]+0.118*[#  13]+0.118*[#  34]+0.092*[#  19]
          +0.092*[#  40]+0.021*[#  18]+0.021*[#  39]+0.014*[#   6]+0.014*[#  27]
          +0.010*[#   5]+0.010*[#  26]+0.003*[#   1]+0.003*[#  22]+0.002*[#  16]
          +0.002*[#  37]+0.001*[#   4]+0.001*[#  25]
    |psi|^2 = 0.991
==== e(  14) =    -1.58825 eV ==== 
     psi = 0.175*[#  19]+0.175*[#  40]+0.166*[#  13]+0.166*[#  34]+0.080*[#   2]
          +0.080*[#  23]+0.030*[#   1]+0.030*[#  22]+0.014*[#   6]+0.014*[#  27]
          +0.014*[#  18]+0.014*[#  39]+0.009*[#   5]+0.009*[#  26]+0.002*[#  10]
          +0.002*[#  16]+0.002*[#  31]+0.002*[#  37]
    |psi|^2 = 0.986
==== e(  15) =     0.55571 eV ==== 
     psi = 0.263*[#  16]+0.260*[#  37]+0.144*[#   4]+0.142*[#  25]+0.074*[#  21]
          +0.073*[#  42]+0.007*[#   6]+0.007*[#  27]+0.002*[#   1]+0.002*[#  22]
          +0.002*[#  15]+0.002*[#  36]+0.002*[#  12]+0.002*[#  18]+0.002*[#  33]
          +0.002*[#  39]
    |psi|^2 = 0.991
==== e(  16) =     0.62101 eV ==== 
     psi = 0.271*[#  37]+0.268*[#  16]+0.125*[#  25]+0.123*[#   4]+0.080*[#  42]
          +0.078*[#  21]+0.007*[#   6]+0.007*[#  27]+0.004*[#  19]+0.004*[#  40]
          +0.003*[#   1]+0.003*[#  22]+0.002*[#  15]+0.002*[#  18]+0.002*[#  36]
          +0.002*[#  39]+0.002*[#  12]+0.002*[#  33]
    |psi|^2 = 0.990
==== e(  17) =     0.77943 eV ==== 
     psi = 0.272*[#  38]+0.265*[#  17]+0.150*[#  24]+0.146*[#   3]+0.074*[#  41]
          +0.072*[#  20]+0.003*[#  11]+0.003*[#  32]+0.003*[#  35]+0.003*[#  14]
          
    |psi|^2 = 0.991
==== e(  18) =     0.84224 eV ==== 
     psi = 0.284*[#  17]+0.277*[#  38]+0.126*[#   3]+0.123*[#  24]+0.086*[#  20]
          +0.084*[#  41]+0.003*[#  11]+0.003*[#  32]+0.001*[#  14]+0.001*[#  35]
          
    |psi|^2 = 0.990
==== e(  19) =     0.92155 eV ==== 
     psi = 0.204*[#  40]+0.204*[#  19]+0.144*[#  23]+0.144*[#   2]+0.057*[#  36]
          +0.057*[#  15]+0.040*[#  21]+0.039*[#  42]+0.016*[#  13]+0.016*[#  34]
          +0.010*[#  25]+0.010*[#   4]+0.009*[#  10]+0.009*[#  31]+0.007*[#  16]
          +0.007*[#  37]+0.007*[#   1]+0.007*[#  22]+0.002*[#   7]+0.002*[#  28]
          
    |psi|^2 = 0.992
==== e(  20) =     1.63396 eV ==== 
     psi = 0.189*[#  36]+0.187*[#  15]+0.140*[#  42]+0.139*[#  21]+0.105*[#  25]
          +0.104*[#   4]+0.024*[#  19]+0.023*[#  40]+0.023*[#   2]+0.022*[#  23]
          +0.006*[#  13]+0.006*[#  34]+0.005*[#  10]+0.005*[#  31]+0.004*[#  16]
          +0.004*[#  37]
    |psi|^2 = 0.989
==== e(  21) =     1.75482 eV ==== 
     psi = 0.216*[#  14]+0.203*[#  35]+0.169*[#  20]+0.160*[#  41]+0.117*[#   3]
          +0.110*[#  24]+0.007*[#  17]+0.007*[#  38]
    |psi|^2 = 0.989
==== e(  22) =     1.80479 eV ==== 
     psi = 0.226*[#  35]+0.214*[#  14]+0.158*[#  41]+0.149*[#  20]+0.122*[#  24]
          +0.115*[#   3]+0.002*[#  38]+0.002*[#  17]
    |psi|^2 = 0.988
==== e(  23) =     1.98577 eV ==== 
     psi = 0.145*[#  15]+0.144*[#  36]+0.127*[#  21]+0.126*[#  42]+0.112*[#   4]
          +0.111*[#  25]+0.052*[#  40]+0.052*[#  19]+0.051*[#  23]+0.050*[#   2]
          +0.005*[#  13]+0.005*[#  34]+0.002*[#   7]+0.002*[#  28]+0.001*[#  16]
          +0.001*[#  37]
    |psi|^2 = 0.986
==== e(  24) =     2.64192 eV ==== 
     psi = 0.244*[#  19]+0.244*[#  40]+0.141*[#   2]+0.141*[#  23]+0.041*[#  13]
          +0.041*[#  34]+0.030*[#  21]+0.030*[#  42]+0.023*[#   4]+0.023*[#  25]
          +0.007*[#  15]+0.007*[#  36]+0.003*[#   7]+0.003*[#  28]+0.002*[#   1]
          +0.002*[#  22]
    |psi|^2 = 0.987
==== e(  25) =     3.80059 eV ==== 
     psi = 0.321*[#  34]+0.321*[#  13]+0.107*[#  19]+0.107*[#  40]+0.039*[#  23]
          +0.038*[#   2]+0.006*[#  16]+0.006*[#  37]+0.005*[#  21]+0.005*[#  42]
          +0.005*[#  12]+0.005*[#  33]+0.002*[#  18]+0.002*[#  39]+0.001*[#   1]
          +0.001*[#   4]+0.001*[#  22]+0.001*[#  25]
    |psi|^2 = 0.972
==== e(  26) =     4.50917 eV ==== 
     psi = 0.237*[#  13]+0.237*[#  34]+0.146*[#   2]+0.146*[#  23]+0.028*[#  16]
          +0.028*[#  37]+0.023*[#   1]+0.023*[#  22]+0.022*[#   4]+0.022*[#  25]
          +0.014*[#  19]+0.014*[#  40]+0.006*[#  15]+0.006*[#  36]+0.004*[#   6]
          +0.004*[#  27]+0.003*[#  10]+0.003*[#  21]+0.003*[#  31]+0.003*[#  42]
          +0.003*[#  18]+0.003*[#  39]+0.001*[#  12]+0.001*[#  33]
    |psi|^2 = 0.985
==== e(  27) =     6.09559 eV ==== 
     psi = 0.267*[#  15]+0.261*[#  36]+0.104*[#  25]+0.104*[#   4]+0.069*[#  21]
          +0.065*[#  42]+0.015*[#  23]+0.015*[#   2]+0.008*[#  18]+0.008*[#  39]
          +0.006*[#  34]+0.006*[#  13]+0.005*[#  37]+0.005*[#  16]+0.002*[#  10]
          +0.002*[#  31]+0.001*[#   1]+0.001*[#  22]+0.001*[#   6]+0.001*[#  19]
          +0.001*[#  27]+0.001*[#  40]
    |psi|^2 = 0.952
==== e(  28) =     6.11342 eV ==== 
     psi = 0.220*[#   3]+0.218*[#  24]+0.167*[#  35]+0.166*[#  14]+0.089*[#  17]
          +0.087*[#  38]+0.004*[#  20]+0.004*[#  41]+0.002*[#  11]+0.002*[#  32]
          
    |psi|^2 = 0.962
==== e(  29) =     6.22616 eV ==== 
     psi = 0.203*[#  21]+0.202*[#  36]+0.201*[#  42]+0.196*[#  15]+0.051*[#  16]
          +0.047*[#  37]+0.008*[#  25]+0.008*[#  39]+0.008*[#  18]+0.006*[#   4]
          +0.004*[#  19]+0.004*[#  40]+0.003*[#  10]+0.003*[#  31]+0.002*[#   1]
          +0.002*[#  22]+0.002*[#  13]+0.002*[#  34]
    |psi|^2 = 0.957
==== e(  30) =     6.31591 eV ==== 
     psi = 0.167*[#  37]+0.159*[#  16]+0.141*[#  25]+0.138*[#   4]+0.105*[#  42]
          +0.098*[#  21]+0.046*[#  36]+0.046*[#  15]+0.010*[#  34]+0.010*[#  13]
          +0.006*[#  23]+0.006*[#   2]+0.004*[#   1]+0.004*[#  22]+0.004*[#  33]
          +0.004*[#  12]+0.003*[#  40]+0.003*[#  19]+0.002*[#   6]+0.002*[#  27]
          +0.002*[#  10]+0.002*[#  31]+0.002*[#  39]+0.002*[#  18]
    |psi|^2 = 0.969
==== e(  31) =     6.37411 eV ==== 
     psi = 0.270*[#  41]+0.226*[#  20]+0.125*[#  38]+0.120*[#  35]+0.104*[#  17]
          +0.099*[#  14]+0.007*[#  24]+0.006*[#  32]+0.005*[#  11]+0.005*[#   3]
          
    |psi|^2 = 0.968
==== e(  32) =     6.40685 eV ==== 
     psi = 0.259*[#  20]+0.214*[#  41]+0.132*[#  14]+0.119*[#  17]+0.111*[#  35]
          +0.097*[#  38]+0.016*[#   3]+0.013*[#  24]+0.006*[#  11]+0.005*[#  32]
          
    |psi|^2 = 0.973
==== e(  33) =     6.44730 eV ==== 
     psi = 0.170*[#  16]+0.166*[#   4]+0.165*[#  37]+0.161*[#  25]+0.080*[#  21]
          +0.079*[#  42]+0.033*[#  15]+0.033*[#  36]+0.016*[#  13]+0.016*[#  34]
          +0.014*[#   2]+0.014*[#  23]+0.005*[#  12]+0.005*[#  33]+0.004*[#   1]
          +0.004*[#  22]+0.002*[#  10]+0.002*[#  19]+0.002*[#  31]+0.002*[#  40]
          +0.001*[#   6]+0.001*[#  27]
    |psi|^2 = 0.975
==== e(  34) =     6.53522 eV ==== 
     psi = 0.234*[#  24]+0.232*[#   3]+0.131*[#  14]+0.130*[#  35]+0.107*[#  38]
          +0.104*[#  17]+0.012*[#  41]+0.011*[#  20]+0.006*[#  32]+0.006*[#  11]
          
    |psi|^2 = 0.973
==== e(  35) =     8.78932 eV ==== 
     psi = 0.131*[#  27]+0.129*[#   6]+0.064*[#  39]+0.063*[#  18]+0.023*[#  33]
          +0.023*[#  12]+0.021*[#  23]+0.021*[#   2]+0.021*[#  22]+0.020*[#   1]
          +0.013*[#  10]+0.013*[#  31]+0.006*[#  40]+0.006*[#  19]+0.004*[#  21]
          +0.004*[#  42]+0.002*[#  13]+0.002*[#  34]+0.001*[#   4]+0.001*[#  25]
          
    |psi|^2 = 0.572
==== e(  36) =     8.82378 eV ==== 
     psi = 0.201*[#   6]+0.199*[#  27]+0.081*[#  18]+0.080*[#  39]+0.055*[#   1]
          +0.055*[#  22]+0.027*[#  12]+0.027*[#  33]+0.011*[#  19]+0.011*[#  40]
          +0.010*[#   2]+0.010*[#  23]+0.007*[#  21]+0.007*[#  42]+0.006*[#  13]
          +0.006*[#  34]+0.005*[#   4]+0.005*[#  25]+0.004*[#  10]+0.004*[#  31]
          
    |psi|^2 = 0.814
==== e(  37) =     9.13191 eV ==== 
     psi = 0.065*[#   6]+0.065*[#  27]+0.031*[#   1]+0.031*[#  22]+0.021*[#  10]
          +0.021*[#  31]+0.014*[#   2]+0.014*[#  23]+0.010*[#  12]+0.010*[#  33]
          +0.008*[#  19]+0.008*[#  40]+0.003*[#  18]+0.003*[#  39]+0.002*[#  16]
          +0.002*[#  37]+0.002*[#  13]+0.002*[#  34]
    |psi|^2 = 0.316
==== e(  38) =     9.57639 eV ==== 
     psi = 0.031*[#  10]+0.031*[#  31]+0.020*[#   1]+0.020*[#  22]+0.007*[#   6]
          +0.007*[#  27]+0.006*[#  13]+0.006*[#  34]+0.002*[#  18]+0.002*[#  19]
          +0.002*[#  39]+0.002*[#  40]+0.002*[#  16]+0.002*[#  37]
    |psi|^2 = 0.143
==== e(  39) =    11.05345 eV ==== 
     psi = 0.100*[#  10]+0.100*[#  31]+0.038*[#  18]+0.038*[#  39]+0.009*[#   1]
          +0.009*[#  22]+0.005*[#  13]+0.005*[#  34]+0.003*[#  21]+0.003*[#  42]
          +0.002*[#   6]+0.002*[#  27]
    |psi|^2 = 0.322
==== e(  40) =    11.53455 eV ==== 
     psi = 0.119*[#  10]+0.119*[#  31]+0.042*[#  18]+0.042*[#  39]+0.021*[#   1]
          +0.021*[#  22]+0.006*[#  21]+0.006*[#  42]+0.004*[#  12]+0.004*[#  33]
          +0.003*[#   4]+0.003*[#  25]+0.002*[#  19]+0.002*[#  40]
    |psi|^2 = 0.396
==== e(  41) =    11.96943 eV ==== 
     psi = 0.184*[#  10]+0.184*[#  31]+0.077*[#   1]+0.077*[#  22]+0.051*[#  18]
          +0.051*[#  39]+0.007*[#   4]+0.007*[#  25]+0.006*[#   2]+0.006*[#  23]
          +0.005*[#  19]+0.005*[#  40]+0.003*[#  21]+0.003*[#  42]+0.002*[#  12]
          +0.002*[#  33]
    |psi|^2 = 0.672
==== e(  42) =    13.07315 eV ==== 
     psi = 0.048*[#  12]+0.048*[#  33]+0.031*[#   6]+0.031*[#  27]+0.010*[#  18]
          +0.010*[#  39]+0.008*[#  10]+0.008*[#  31]+0.006*[#  13]+0.006*[#  34]
          +0.003*[#  21]+0.003*[#  42]+0.002*[#   2]+0.002*[#  23]+0.002*[#   9]
          +0.002*[#  16]+0.002*[#  30]+0.002*[#  37]+0.001*[#   4]+0.001*[#  25]
          
    |psi|^2 = 0.229
==== e(  43) =    13.28780 eV ==== 
     psi = 0.163*[#  12]+0.163*[#  33]+0.043*[#   6]+0.043*[#  27]+0.008*[#  10]
          +0.008*[#  31]+0.005*[#   9]+0.005*[#  30]+0.004*[#   4]+0.004*[#  25]
          +0.003*[#  21]+0.003*[#  42]+0.003*[#  18]+0.003*[#  39]+0.003*[#   5]
          +0.003*[#  26]+0.003*[#   1]+0.003*[#  22]+0.002*[#   2]+0.002*[#  23]
          +0.002*[#  13]+0.002*[#  34]+0.002*[#  19]+0.002*[#  40]
    |psi|^2 = 0.483
==== e(  44) =    13.51969 eV ==== 
     psi = 0.165*[#  33]+0.164*[#  12]+0.020*[#   6]+0.020*[#  27]+0.007*[#  21]
          +0.007*[#  42]+0.005*[#   9]+0.005*[#  30]+0.003*[#   4]+0.003*[#   5]
          +0.003*[#  16]+0.003*[#  25]+0.003*[#  26]+0.003*[#  37]
    |psi|^2 = 0.412
==== e(  45) =    13.69744 eV ==== 
     psi = 0.276*[#  32]+0.273*[#  11]+0.008*[#   8]+0.008*[#  29]+0.005*[#  20]
          +0.005*[#  41]+0.003*[#   3]+0.003*[#  24]+0.002*[#  17]+0.002*[#  38]
          
    |psi|^2 = 0.585
==== e(  46) =    13.85338 eV ==== 
     psi = 0.234*[#  11]+0.231*[#  32]+0.007*[#  20]+0.007*[#  41]+0.007*[#   8]
          +0.007*[#  29]+0.005*[#   3]+0.005*[#  24]+0.003*[#  17]+0.003*[#  38]
          
    |psi|^2 = 0.510
==== e(  47) =    14.74581 eV ==== 
     psi = 0.052*[#  12]+0.052*[#  33]+0.005*[#   1]+0.005*[#  22]+0.004*[#  15]
          +0.004*[#  36]+0.003*[#   4]+0.003*[#  25]+0.003*[#  10]+0.003*[#  31]
          +0.002*[#  13]+0.002*[#  34]+0.001*[#   9]+0.001*[#  30]
    |psi|^2 = 0.146
==== e(  48) =    15.06685 eV ==== 
     psi = 0.028*[#   1]+0.028*[#  22]+0.025*[#  10]+0.025*[#  31]+0.010*[#   6]
          +0.010*[#  27]+0.007*[#  12]+0.006*[#  33]+0.006*[#  13]+0.006*[#  34]
          +0.003*[#  19]+0.003*[#  15]+0.003*[#  36]+0.003*[#  40]+0.002*[#   4]
          +0.002*[#  25]
    |psi|^2 = 0.171
==== e(  49) =    15.32970 eV ==== 
     psi = 0.022*[#  12]+0.022*[#  33]+0.012*[#   1]+0.012*[#  22]+0.011*[#   6]
          +0.011*[#  27]+0.008*[#   2]+0.008*[#  23]+0.007*[#  10]+0.007*[#  31]
          +0.006*[#  13]+0.006*[#  34]+0.004*[#  19]+0.004*[#  40]+0.001*[#  37]
          
    |psi|^2 = 0.145
==== e(  50) =    15.35526 eV ==== 
     psi = 0.022*[#  32]+0.022*[#  11]+0.006*[#  14]+0.006*[#  35]+0.004*[#   3]
          +0.004*[#  24]+0.001*[#  20]+0.001*[#  41]
    |psi|^2 = 0.070
==== e(  51) =    15.66950 eV ==== 
     psi = 0.015*[#  33]+0.015*[#  12]+0.004*[#  18]+0.004*[#  39]+0.003*[#  15]
          +0.003*[#  36]+0.002*[#  10]+0.002*[#  31]+0.001*[#   4]+0.002*[#  13]
          +0.002*[#  21]+0.001*[#  25]+0.002*[#  34]+0.002*[#  42]
    |psi|^2 = 0.060
==== e(  52) =    16.11220 eV ==== 
[...]
          +0.004*[#  32]+0.003*[#   4]+0.003*[#  25]+0.002*[#  14]+0.002*[#  35]
          +0.001*[#  21]+0.001*[#  42]+0.001*[#   3]+0.001*[#  24]
    |psi|^2 = 0.065
==== e(  50) =    15.39590 eV ==== 
     psi = 0.013*[#  32]+0.013*[#  11]+0.006*[#  14]+0.006*[#  35]+0.004*[#  12]
          +0.004*[#  33]+0.003*[#   3]+0.003*[#  24]+0.002*[#  15]+0.002*[#  36]
          +0.001*[#  20]+0.001*[#  41]+0.001*[#   4]+0.001*[#  25]
    |psi|^2 = 0.063
==== e(  51) =    15.88894 eV ==== 
     psi = 0.022*[#  10]+0.022*[#  31]+0.008*[#  18]+0.008*[#  39]+0.002*[#   1]
          +0.002*[#  22]
    |psi|^2 = 0.068
==== e(  52) =    16.24863 eV ==== 
     psi = 0.004*[#  15]+0.004*[#  36]+0.003*[#  12]+0.004*[#  33]+0.003*[#  21]
          +0.003*[#  42]+0.002*[#   4]+0.002*[#  25]+0.001*[#  14]+0.001*[#  35]
          +0.001*[#  10]+0.001*[#  31]+0.001*[#  11]+0.001*[#  32]
    |psi|^2 = 0.038
==== e(  53) =    16.27304 eV ==== 
     psi = 0.004*[#  14]+0.004*[#  35]+0.004*[#  11]+0.004*[#  32]+0.003*[#  20]
          +0.003*[#  41]+0.002*[#   3]+0.002*[#  24]+0.001*[#  15]+0.001*[#  36]
          +0.001*[#  12]+0.001*[#  33]
    |psi|^2 = 0.035
==== e(  54) =    16.65849 eV ==== 
     psi = 0.007*[#  10]+0.007*[#  31]+0.004*[#  18]+0.004*[#  39]
    |psi|^2 = 0.030
==== e(  55) =    17.95149 eV ==== 
     psi = 0.006*[#  15]+0.006*[#  36]+0.003*[#  14]+0.003*[#  35]+0.002*[#  16]
          +0.002*[#  37]
    |psi|^2 = 0.027
==== e(  56) =    17.96728 eV ==== 
     psi = 0.006*[#  14]+0.006*[#  35]+0.003*[#  15]+0.003*[#  17]+0.003*[#  36]
          +0.003*[#  38]+0.001*[#  16]+0.001*[#  37]
    |psi|^2 = 0.027
==== e(  57) =    18.11340 eV ==== 
     psi = 0.005*[#  10]+0.005*[#  31]+0.002*[#  18]+0.002*[#  39]+0.002*[#   1]
          +0.002*[#  22]
    |psi|^2 = 0.019
==== e(  58) =    18.89343 eV ==== 
     psi = 0.006*[#  10]+0.006*[#  31]+0.003*[#  18]+0.003*[#  39]+0.002*[#  12]
          +0.002*[#  33]+0.001*[#  16]+0.001*[#  37]
    |psi|^2 = 0.036
==== e(  59) =    18.93847 eV ==== 
     psi = 0.004*[#  10]+0.004*[#  31]+0.003*[#   2]+0.003*[#  23]+0.002*[#   1]
          +0.002*[#  22]+0.001*[#   6]+0.001*[#  27]
    |psi|^2 = 0.022
==== e(  60) =    18.99564 eV ==== 
     psi = 0.006*[#  11]+0.006*[#  32]+0.004*[#  17]+0.004*[#  38]+0.002*[#  12]
          +0.002*[#  33]+0.001*[#  16]+0.001*[#  37]+0.001*[#  14]+0.001*[#  35]
          
    |psi|^2 = 0.032

 k =   0.0000000000  0.0000000000  0.0822700910
==== e(   1) =   -51.50964 eV ==== 
     psi = 0.959*[#  26]+0.015*[#  27]+0.010*[#  23]+0.010*[#  40]+0.002*[#  34]
          +0.002*[#  22]+0.002*[#  39]
    |psi|^2 = 1.000
==== e(   2) =   -51.50928 eV ==== 
     psi = 0.959*[#   5]+0.015*[#   6]+0.010*[#   2]+0.010*[#  19]+0.002*[#  13]
          +0.002*[#   1]+0.002*[#  18]
    |psi|^2 = 1.000
==== e(   3) =   -27.73404 eV ==== 
     psi = 0.771*[#  28]+0.196*[#   7]+0.010*[#  31]+0.005*[#  22]+0.005*[#  39]
          +0.003*[#  40]+0.003*[#  23]+0.003*[#  10]+0.001*[#   1]+0.001*[#  18]
          
    |psi|^2 = 1.000
==== e(   4) =   -27.73347 eV ==== 
     psi = 0.772*[#   7]+0.197*[#  28]+0.008*[#  10]+0.005*[#   1]+0.005*[#  18]
          +0.003*[#   2]+0.003*[#  19]+0.002*[#  31]+0.001*[#  22]+0.001*[#  39]
          +0.001*[#  23]
    |psi|^2 = 1.000
==== e(   5) =   -27.50926 eV ==== 
     psi = 0.837*[#  30]+0.131*[#  29]+0.023*[#  33]+0.004*[#  32]+0.002*[#   9]
          +0.002*[#  25]+0.001*[#  42]
    |psi|^2 = 1.000
==== e(   6) =   -27.50899 eV ==== 
     psi = 0.802*[#  29]+0.124*[#  30]+0.035*[#   8]+0.022*[#  32]+0.009*[#   9]
          +0.003*[#  33]+0.002*[#  24]+0.001*[#  41]
    |psi|^2 = 1.000
==== e(   7) =   -27.50887 eV ==== 
     psi = 0.684*[#   8]+0.241*[#   9]+0.037*[#  29]+0.019*[#  11]+0.008*[#  30]
          +0.007*[#  12]+0.001*[#   3]+0.001*[#  20]
    |psi|^2 = 1.000
==== e(   8) =   -27.50868 eV ==== 
     psi = 0.717*[#   9]+0.250*[#   8]+0.020*[#  12]+0.007*[#  11]+0.001*[#   4]
          +0.001*[#  21]+0.001*[#  30]
    |psi|^2 = 1.000
==== e(   9) =   -10.77236 eV ==== 
     psi = 0.208*[#  22]+0.208*[#   1]+0.178*[#  27]+0.178*[#   6]+0.079*[#  18]
          +0.079*[#  39]+0.023*[#  10]+0.023*[#  31]+0.008*[#   5]+0.008*[#  26]
          +0.002*[#  19]+0.002*[#  40]
    |psi|^2 = 0.999
==== e(  10) =   -10.34879 eV ==== 
     psi = 0.178*[#   6]+0.178*[#  27]+0.155*[#  18]+0.155*[#  39]+0.138*[#   1]
          +0.137*[#  22]+0.010*[#   5]+0.010*[#  26]+0.010*[#   2]+0.010*[#  23]
          +0.004*[#  10]+0.004*[#  31]+0.004*[#  19]+0.004*[#  40]
    |psi|^2 = 0.999
==== e(  11) =    -9.33535 eV ==== 
     psi = 0.222*[#  39]+0.222*[#  18]+0.181*[#  31]+0.181*[#  10]+0.069*[#  22]
          +0.068*[#   1]+0.014*[#   6]+0.014*[#  27]+0.011*[#   7]+0.011*[#  28]
          +0.002*[#   2]+0.002*[#  23]
    |psi|^2 = 0.999
==== e(  12) =    -8.88601 eV ==== 
     psi = 0.182*[#   1]+0.182*[#  22]+0.159*[#  10]+0.159*[#  31]+0.144*[#  18]
          +0.144*[#  39]+0.012*[#   7]+0.012*[#  28]+0.002*[#   2]+0.002*[#  23]
          
    |psi|^2 = 0.999
==== e(  13) =    -2.65282 eV ==== 
     psi = 0.231*[#   2]+0.231*[#  23]+0.121*[#  13]+0.121*[#  34]+0.093*[#  19]
          +0.093*[#  40]+0.022*[#  18]+0.022*[#  39]+0.015*[#   6]+0.015*[#  27]
          +0.010*[#   5]+0.010*[#  26]+0.003*[#   1]+0.003*[#  22]
    |psi|^2 = 0.991
==== e(  14) =    -1.65592 eV ==== 
     psi = 0.173*[#  19]+0.173*[#  40]+0.170*[#  13]+0.170*[#  34]+0.079*[#   2]
          +0.079*[#  23]+0.031*[#   1]+0.031*[#  22]+0.014*[#   6]+0.014*[#  27]
          +0.014*[#  18]+0.014*[#  39]+0.009*[#   5]+0.009*[#  26]+0.001*[#  10]
          +0.001*[#  31]
    |psi|^2 = 0.986
==== e(  15) =     0.72432 eV ==== 
     psi = 0.241*[#  38]+0.235*[#  17]+0.119*[#  24]+0.117*[#   3]+0.065*[#  41]
          +0.064*[#  20]+0.041*[#  16]+0.039*[#  37]+0.020*[#   4]+0.020*[#  25]
          +0.011*[#  21]+0.011*[#  42]+0.001*[#  11]+0.002*[#  32]+0.001*[#  14]
          +0.001*[#  35]
    |psi|^2 = 0.991
==== e(  16) =     0.72439 eV ==== 
     psi = 0.238*[#  16]+0.237*[#  37]+0.119*[#   4]+0.118*[#  25]+0.065*[#  21]
          +0.064*[#  42]+0.042*[#  38]+0.039*[#  17]+0.021*[#  24]+0.019*[#   3]
          +0.011*[#  41]+0.011*[#  20]+0.002*[#  12]+0.001*[#  15]+0.001*[#  33]
          +0.001*[#  36]
    |psi|^2 = 0.991
==== e(  17) =     0.77833 eV ==== 
     psi = 0.184*[#  37]+0.184*[#  16]+0.106*[#  17]+0.101*[#  38]+0.077*[#   4]
          +0.077*[#  25]+0.054*[#  42]+0.054*[#  21]+0.044*[#   3]+0.042*[#  24]
          +0.031*[#  20]+0.030*[#  41]+0.001*[#  12]+0.001*[#  33]
    |psi|^2 = 0.990
==== e(  18) =     0.77878 eV ==== 
     psi = 0.186*[#  17]+0.182*[#  38]+0.105*[#  37]+0.102*[#  16]+0.078*[#   3]
          +0.076*[#  24]+0.055*[#  20]+0.054*[#  41]+0.044*[#  25]+0.042*[#   4]
          +0.031*[#  42]+0.030*[#  21]+0.001*[#  11]+0.001*[#  32]
    |psi|^2 = 0.990
==== e(  19) =     1.11222 eV ==== 
     psi = 0.258*[#  19]+0.259*[#  40]+0.196*[#   2]+0.196*[#  23]+0.021*[#  13]
          +0.021*[#  34]+0.009*[#   1]+0.009*[#  22]+0.007*[#  10]+0.007*[#  31]
          +0.004*[#   7]+0.004*[#  28]
    |psi|^2 = 0.993
==== e(  20) =     1.86793 eV ==== 
     psi = 0.126*[#  36]+0.100*[#  35]+0.097*[#  14]+0.096*[#  42]+0.095*[#  15]
          +0.077*[#  41]+0.074*[#  20]+0.074*[#  21]+0.072*[#  25]+0.057*[#  24]
          +0.055*[#   3]+0.055*[#   4]+0.003*[#  37]+0.002*[#  16]+0.002*[#  38]
          +0.002*[#  17]
    |psi|^2 = 0.988
==== e(  21) =     1.86909 eV ==== 
     psi = 0.125*[#  14]+0.098*[#  36]+0.098*[#  15]+0.097*[#  35]+0.095*[#  20]
          +0.075*[#  42]+0.075*[#  21]+0.075*[#  41]+0.071*[#   3]+0.056*[#  25]
          +0.056*[#   4]+0.056*[#  24]+0.003*[#  17]+0.002*[#  16]+0.002*[#  37]
          +0.002*[#  38]
    |psi|^2 = 0.988
==== e(  22) =     1.89546 eV ==== 
     psi = 0.211*[#  15]+0.174*[#  36]+0.145*[#  21]+0.118*[#  42]+0.117*[#   4]
          +0.096*[#  25]+0.031*[#  14]+0.024*[#  35]+0.021*[#  20]+0.017*[#   3]
          +0.016*[#  41]+0.013*[#  24]+0.002*[#  16]+0.001*[#  37]
    |psi|^2 = 0.987
==== e(  23) =     1.89599 eV ==== 
     psi = 0.208*[#  35]+0.177*[#  14]+0.143*[#  41]+0.120*[#  20]+0.115*[#  24]
          +0.098*[#   3]+0.030*[#  36]+0.024*[#  15]+0.021*[#  42]+0.017*[#  25]
          +0.016*[#  21]+0.013*[#   4]+0.002*[#  38]+0.001*[#  17]
    |psi|^2 = 0.987
==== e(  24) =     2.53653 eV ==== 
     psi = 0.275*[#  19]+0.275*[#  40]+0.161*[#   2]+0.161*[#  23]+0.049*[#  13]
          +0.049*[#  34]+0.003*[#  10]+0.003*[#  31]+0.003*[#   7]+0.003*[#  28]
          +0.001*[#   1]+0.001*[#  22]
    |psi|^2 = 0.988
==== e(  25) =     3.83717 eV ==== 
     psi = 0.325*[#  34]+0.325*[#  13]+0.113*[#  19]+0.113*[#  40]+0.042*[#   2]
          +0.042*[#  23]+0.001*[#  18]+0.001*[#  39]+0.001*[#   1]+0.001*[#  22]
          
    |psi|^2 = 0.967
==== e(  26) =     4.72639 eV ==== 
     psi = 0.260*[#  13]+0.260*[#  34]+0.180*[#   2]+0.180*[#  23]+0.024*[#   1]
          +0.024*[#  22]+0.014*[#  19]+0.014*[#  40]+0.005*[#   6]+0.005*[#  27]
          +0.004*[#  10]+0.004*[#  18]+0.004*[#  31]+0.004*[#  39]+0.001*[#   5]
          +0.001*[#  26]
    |psi|^2 = 0.984
==== e(  27) =     6.03488 eV ==== 
     psi = 0.216*[#  35]+0.214*[#  14]+0.178*[#   3]+0.177*[#  24]+0.034*[#  17]
          +0.033*[#  38]+0.021*[#  41]+0.020*[#  20]+0.015*[#  15]+0.014*[#  36]
          +0.013*[#   4]+0.012*[#  25]+0.002*[#  16]+0.002*[#  37]+0.002*[#  21]
          +0.001*[#  42]
    |psi|^2 = 0.956
==== e(  28) =     6.03778 eV ==== 
     psi = 0.217*[#  15]+0.216*[#  36]+0.177*[#  25]+0.176*[#   4]+0.033*[#  37]
          +0.032*[#  16]+0.022*[#  21]+0.021*[#  42]+0.016*[#  35]+0.014*[#  14]
          +0.013*[#  24]+0.012*[#   3]+0.002*[#  17]+0.002*[#  38]+0.002*[#  41]
          +0.001*[#  20]
    |psi|^2 = 0.956
==== e(  29) =     6.29807 eV ==== 
     psi = 0.184*[#  15]+0.181*[#  36]+0.167*[#  21]+0.158*[#  42]+0.043*[#  14]
          +0.041*[#  35]+0.037*[#  41]+0.037*[#  20]+0.025*[#  25]+0.023*[#   4]
          +0.022*[#  16]+0.019*[#  37]+0.006*[#   3]+0.005*[#  24]+0.005*[#  38]
          +0.004*[#  17]
    |psi|^2 = 0.959
==== e(  30) =     6.30007 eV ==== 
     psi = 0.185*[#  35]+0.182*[#  14]+0.166*[#  41]+0.156*[#  20]+0.042*[#  36]
          +0.041*[#  15]+0.037*[#  21]+0.037*[#  42]+0.026*[#   3]+0.024*[#  24]
          +0.021*[#  38]+0.018*[#  17]+0.006*[#  25]+0.005*[#   4]+0.005*[#  16]
          +0.004*[#  37]
    |psi|^2 = 0.958
==== e(  31) =     6.42034 eV ==== 
     psi = 0.234*[#  42]+0.222*[#  21]+0.171*[#  37]+0.165*[#  16]+0.044*[#  25]
          +0.044*[#   4]+0.039*[#  36]+0.036*[#  15]+0.007*[#  33]+0.007*[#  12]
          +0.003*[#  20]+0.002*[#  41]+0.002*[#  17]+0.002*[#  38]
    |psi|^2 = 0.980
==== e(  32) =     6.42202 eV ==== 
     psi = 0.235*[#  20]+0.223*[#  41]+0.170*[#  17]+0.164*[#  38]+0.043*[#  24]
          +0.043*[#   3]+0.041*[#  14]+0.037*[#  35]+0.007*[#  11]+0.007*[#  32]
          +0.003*[#  42]+0.002*[#  21]+0.002*[#  37]+0.002*[#  16]
    |psi|^2 = 0.980
==== e(  33) =     6.51998 eV ==== 
     psi = 0.213*[#  24]+0.210*[#   3]+0.173*[#  38]+0.169*[#  17]+0.056*[#  41]
          +0.054*[#  20]+0.034*[#  14]+0.034*[#  35]+0.010*[#  32]+0.010*[#  11]
          +0.004*[#   4]+0.004*[#  25]+0.003*[#  37]+0.003*[#  16]+0.001*[#  42]
          
    |psi|^2 = 0.980
==== e(  34) =     6.52104 eV ==== 
     psi = 0.215*[#   4]+0.211*[#  25]+0.172*[#  16]+0.167*[#  37]+0.055*[#  21]
          +0.052*[#  42]+0.036*[#  36]+0.036*[#  15]+0.010*[#  12]+0.010*[#  33]
          +0.004*[#   3]+0.004*[#  24]+0.003*[#  17]+0.003*[#  38]+0.001*[#  20]
          
    |psi|^2 = 0.980
==== e(  35) =     8.52701 eV ==== 
     psi = 0.242*[#  27]+0.238*[#   6]+0.082*[#  39]+0.081*[#  18]+0.062*[#  22]
          +0.061*[#   1]+0.013*[#  40]+0.013*[#  19]+0.010*[#  23]+0.010*[#   2]
          +0.004*[#  13]+0.004*[#  34]+0.002*[#  10]+0.003*[#  31]
    |psi|^2 = 0.825
==== e(  36) =     8.55196 eV ==== 
     psi = 0.207*[#   6]+0.203*[#  27]+0.069*[#  18]+0.068*[#  39]+0.033*[#   1]
          +0.032*[#  22]+0.031*[#   2]+0.030*[#  23]+0.010*[#  19]+0.010*[#  40]
          +0.006*[#  10]+0.006*[#  31]
    |psi|^2 = 0.705
==== e(  37) =     8.97788 eV ==== 
     psi = 0.029*[#  10]+0.029*[#  31]+0.028*[#   6]+0.028*[#  27]+0.019*[#   1]
          +0.019*[#  22]+0.006*[#   2]+0.006*[#  23]+0.004*[#  19]+0.004*[#  40]
          +0.003*[#  13]+0.003*[#  34]
    |psi|^2 = 0.183
==== e(  38) =     9.46315 eV ==== 
     psi = 0.032*[#  10]+0.032*[#  31]+0.016*[#   1]+0.016*[#  22]+0.007*[#  13]
          +0.007*[#  34]+0.006*[#  18]+0.006*[#  39]+0.002*[#   6]+0.002*[#  27]
          +0.001*[#  19]+0.001*[#  40]
    |psi|^2 = 0.130
==== e(  39) =    10.93291 eV ==== 
     psi = 0.148*[#  10]+0.148*[#  31]+0.061*[#  18]+0.061*[#  39]+0.018*[#   1]
          +0.018*[#  22]+0.005*[#  13]+0.005*[#  34]+0.002*[#   6]+0.002*[#  27]
          +0.002*[#  19]+0.002*[#  40]
    |psi|^2 = 0.470
==== e(  40) =    11.27309 eV ==== 
     psi = 0.076*[#  10]+0.077*[#  31]+0.029*[#  18]+0.029*[#  39]+0.017*[#   1]
          +0.017*[#  22]+0.002*[#  19]+0.002*[#  40]
    |psi|^2 = 0.249
==== e(  41) =    11.70684 eV ==== 
     psi = 0.188*[#  10]+0.188*[#  31]+0.085*[#   1]+0.085*[#  22]+0.056*[#  18]
          +0.056*[#  39]+0.007*[#   2]+0.007*[#  23]+0.004*[#  19]+0.004*[#  40]
          
    |psi|^2 = 0.681
==== e(  42) =    13.07611 eV ==== 
     psi = 0.015*[#   6]+0.015*[#  27]+0.012*[#  18]+0.012*[#  39]+0.009*[#  13]
          +0.009*[#  34]+0.006*[#  10]+0.006*[#  31]+0.001*[#   2]+0.001*[#  23]
          
    |psi|^2 = 0.088
==== e(  43) =    13.56108 eV ==== 
     psi = 0.196*[#  12]+0.196*[#  33]+0.101*[#  32]+0.095*[#  11]+0.006*[#   9]
          +0.006*[#  30]+0.003*[#  29]+0.003*[#   8]+0.002*[#  21]+0.002*[#  42]
          +0.002*[#   4]+0.002*[#  25]+0.001*[#  41]+0.001*[#  20]
    |psi|^2 = 0.619
==== e(  44) =    13.56291 eV ==== 
     psi = 0.198*[#  32]+0.194*[#  11]+0.100*[#  12]+0.095*[#  33]+0.006*[#   8]
          +0.006*[#  29]+0.003*[#   9]+0.003*[#  30]+0.002*[#  20]+0.002*[#  41]
          +0.002*[#   3]+0.002*[#  24]+0.001*[#  21]+0.001*[#  42]
    |psi|^2 = 0.619
==== e(  45) =    13.61355 eV ==== 
     psi = 0.177*[#  11]+0.173*[#  32]+0.068*[#  33]+0.064*[#  12]+0.005*[#   8]
          +0.005*[#  29]+0.005*[#  20]+0.005*[#  41]+0.003*[#  17]+0.003*[#  38]
          +0.003*[#   3]+0.003*[#  24]+0.002*[#  30]+0.002*[#   9]+0.002*[#  21]
          +0.002*[#  42]+0.001*[#   4]+0.001*[#  16]+0.001*[#  25]+0.001*[#  37]
          
    |psi|^2 = 0.527
==== e(  46) =    13.61508 eV ==== 
     psi = 0.175*[#  33]+0.174*[#  12]+0.069*[#  11]+0.063*[#  32]+0.005*[#   9]
          +0.005*[#  30]+0.005*[#  21]+0.005*[#  42]+0.003*[#  16]+0.003*[#  37]
          +0.003*[#   4]+0.003*[#  25]+0.002*[#   8]+0.002*[#  20]+0.002*[#  29]
          +0.002*[#  41]+0.001*[#   3]+0.001*[#  17]+0.001*[#  24]+0.001*[#  38]
          
    |psi|^2 = 0.526
==== e(  47) =    14.87020 eV ==== 
     psi = 0.034*[#   1]+0.034*[#  22]+0.028*[#  10]+0.028*[#  31]+0.017*[#   6]
          +0.017*[#  27]+0.007*[#  13]+0.007*[#  34]+0.004*[#  19]+0.004*[#  40]
          
    |psi|^2 = 0.179
==== e(  48) =    15.16453 eV ==== 
     psi = 0.032*[#   6]+0.032*[#  27]+0.015*[#   1]+0.015*[#  22]+0.011*[#   2]
          +0.011*[#  23]+0.009*[#  10]+0.009*[#  31]+0.007*[#  13]+0.007*[#  34]
          +0.005*[#  19]+0.005*[#  40]+0.001*[#  18]+0.001*[#  39]
    |psi|^2 = 0.159
==== e(  49) =    15.39732 eV ==== 
     psi = 0.014*[#  12]+0.013*[#  33]+0.006*[#  15]+0.006*[#  36]+0.004*[#  11]
          +0.004*[#  32]+0.004*[#   4]+0.004*[#  25]+0.002*[#  14]+0.002*[#  35]
          +0.001*[#  21]+0.001*[#  42]+0.001*[#   3]+0.001*[#  24]
    |psi|^2 = 0.063
==== e(  50) =    15.39918 eV ==== 
     psi = 0.013*[#  32]+0.013*[#  11]+0.006*[#  14]+0.006*[#  35]+0.004*[#  12]
          +0.004*[#  33]+0.004*[#   3]+0.004*[#  24]+0.002*[#  15]+0.002*[#  36]
          +0.001*[#  20]+0.001*[#  41]+0.001*[#   4]+0.001*[#  25]
    |psi|^2 = 0.063
==== e(  51) =    15.89519 eV ==== 
     psi = 0.023*[#  10]+0.023*[#  31]+0.008*[#  18]+0.008*[#  39]+0.002*[#   1]
          +0.002*[#  22]
    |psi|^2 = 0.071
==== e(  52) =    16.27251 eV ==== 
     psi = 0.004*[#  14]+0.004*[#  35]+0.003*[#  11]+0.003*[#  32]+0.003*[#  20]
          +0.003*[#  41]+0.002*[#  15]+0.002*[#  36]+0.002*[#  12]+0.002*[#  33]
          +0.002*[#  21]+0.002*[#  42]+0.001*[#   3]+0.001*[#  24]
    |psi|^2 = 0.035
==== e(  53) =    16.27462 eV ==== 
     psi = 0.004*[#  15]+0.004*[#  36]+0.003*[#  12]+0.003*[#  33]+0.002*[#  21]
          +0.002*[#  42]+0.002*[#  14]+0.002*[#  35]+0.002*[#  11]+0.002*[#  32]
          +0.002*[#  20]+0.002*[#  41]+0.001*[#   4]+0.001*[#  25]
    |psi|^2 = 0.035
==== e(  54) =    16.65847 eV ==== 
     psi = 0.007*[#  10]+0.007*[#  31]+0.004*[#  18]+0.004*[#  39]
    |psi|^2 = 0.029
==== e(  55) =    17.96244 eV ==== 
     psi = 0.008*[#  14]+0.008*[#  35]+0.003*[#  17]+0.003*[#  38]+0.001*[#  15]
          +0.001*[#  36]
    |psi|^2 = 0.027
==== e(  56) =    17.96694 eV ==== 
     psi = 0.008*[#  15]+0.008*[#  36]+0.003*[#  16]+0.003*[#  37]+0.001*[#  14]
          +0.001*[#  35]
    |psi|^2 = 0.027
==== e(  57) =    18.07611 eV ==== 
     psi = 0.005*[#  10]+0.005*[#  31]+0.002*[#  18]+0.002*[#  39]+0.002*[#   1]
          +0.002*[#  22]
    |psi|^2 = 0.019
==== e(  58) =    18.89514 eV ==== 
     psi = 0.004*[#  10]+0.004*[#  31]+0.003*[#   2]+0.003*[#  23]+0.002*[#   1]
          +0.002*[#  22]+0.001*[#   6]+0.001*[#  27]
    |psi|^2 = 0.021
==== e(  59) =    18.94329 eV ==== 
     psi = 0.009*[#  10]+0.009*[#  31]+0.005*[#  18]+0.005*[#  39]+0.002*[#   6]
          +0.002*[#  27]+0.001*[#   2]+0.001*[#  23]
    |psi|^2 = 0.035
==== e(  60) =    19.00180 eV ==== 
     psi = 0.007*[#  12]+0.007*[#  33]+0.005*[#  16]+0.005*[#  37]+0.002*[#  15]
          +0.002*[#  36]
    |psi|^2 = 0.031

Lowdin Charges: 

     Atom #   1: total charge =   5.5782, s =  1.5226, 
     Atom #   1: total charge =   5.5782, p =  4.0556, pz=  1.4449, px=  1.2700, py=  1.3407, 
     Atom #   1: total charge =   5.5782, d =  0.0000, dz2=  0.0000, dxz=  0.0000, dyz=  0.0000, dx2-y2=  0.0000, dxy=  0.0000, 
     Atom #   2: total charge =  13.3671, s =  2.3965, 
     Atom #   2: total charge =  13.3671, p =  7.0626, pz=  2.4475, px=  2.1435, py=  2.4717, 
     Atom #   2: total charge =  13.3671, d =  3.9081, dz2=  0.6924, dxz=  0.8277, dyz=  0.8065, dx2-y2=  0.9586, dxy=  0.6229, 
     Atom #   3: total charge =   5.6135, s =  1.5284, 
     Atom #   3: total charge =   5.6135, p =  4.0851, pz=  1.5306, px=  1.2326, py=  1.3219, 
     Atom #   3: total charge =   5.6135, d =  0.0000, dz2=  0.0000, dxz=  0.0000, dyz=  0.0000, dx2-y2=  0.0000, dxy=  0.0000, 
     Atom #   4: total charge =   5.5778, s =  1.5227, 
     Atom #   4: total charge =   5.5778, p =  4.0551, pz=  1.4447, px=  1.2700, py=  1.3403, 
     Atom #   4: total charge =   5.5778, d =  0.0000, dz2=  0.0000, dxz=  0.0000, dyz=  0.0000, dx2-y2=  0.0000, dxy=  0.0000, 
     Atom #   5: total charge =  13.3678, s =  2.3965, 
     Atom #   5: total charge =  13.3678, p =  7.0627, pz=  2.4475, px=  2.1435, py=  2.4717, 
     Atom #   5: total charge =  13.3678, d =  3.9087, dz2=  0.6926, dxz=  0.8276, dyz=  0.8067, dx2-y2=  0.9588, dxy=  0.6230, 
     Atom #   6: total charge =   5.6141, s =  1.5283, 
     Atom #   6: total charge =   5.6141, p =  4.0857, pz=  1.5309, px=  1.2325, py=  1.3223, 
     Atom #   6: total charge =   5.6141, d =  0.0000, dz2=  0.0000, dxz=  0.0000, dyz=  0.0000, dx2-y2=  0.0000, dxy=  0.0000, 
     Spilling Parameter:   0.0176

     PROJWFC      :     12.96s CPU     13.98s WALL


   This run was terminated on:  21:59:58  15Jun2021            

=------------------------------------------------------------------------------=
   JOB DONE.
=------------------------------------------------------------------------------=
